 Entering Gaussian System, Link 0=g09
 Initial command:
 /usr/local/gaussian/g09/l1.exe "/home/alphaomega/rpaton/Gau-1934.inp" -scrdir="/home/alphaomega/rpaton/"
 Entering Link 1 = /usr/local/gaussian/g09/l1.exe PID=      1935.
  
 Copyright (c) 1988,1990,1992,1993,1995,1998,2003,2009,2013,
            Gaussian, Inc.  All Rights Reserved.
  
 This is part of the Gaussian(R) 09 program.  It is based on
 the Gaussian(R) 03 system (copyright 2003, Gaussian, Inc.),
 the Gaussian(R) 98 system (copyright 1998, Gaussian, Inc.),
 the Gaussian(R) 94 system (copyright 1995, Gaussian, Inc.),
 the Gaussian 92(TM) system (copyright 1992, Gaussian, Inc.),
 the Gaussian 90(TM) system (copyright 1990, Gaussian, Inc.),
 the Gaussian 88(TM) system (copyright 1988, Gaussian, Inc.),
 the Gaussian 86(TM) system (copyright 1986, Carnegie Mellon
 University), and the Gaussian 82(TM) system (copyright 1983,
 Carnegie Mellon University). Gaussian is a federally registered
 trademark of Gaussian, Inc.
  
 This software contains proprietary and confidential information,
 including trade secrets, belonging to Gaussian, Inc.
  
 This software is provided under written license and may be
 used, copied, transmitted, or stored only in accord with that
 written license.
  
 The following legend is applicable only to US Government
 contracts under FAR:
  
                    RESTRICTED RIGHTS LEGEND
  
 Use, reproduction and disclosure by the US Government is
 subject to restrictions as set forth in subparagraphs (a)
 and (c) of the Commercial Computer Software - Restricted
 Rights clause in FAR 52.227-19.
  
 Gaussian, Inc.
 340 Quinnipiac St., Bldg. 40, Wallingford CT 06492
  
  
 ---------------------------------------------------------------
 Warning -- This program may not be used in any manner that
 competes with the business of Gaussian, Inc. or will provide
 assistance to any competitor of Gaussian, Inc.  The licensee
 of this program is prohibited from giving any competitor of
 Gaussian, Inc. access to this program.  By using this program,
 the user acknowledges that Gaussian, Inc. is engaged in the
 business of creating and licensing software in the field of
 computational chemistry and represents and warrants to the
 licensee that it is not a competitor of Gaussian, Inc. and that
 it will not use this program in any manner prohibited above.
 ---------------------------------------------------------------
  

 Cite this work as:
 Gaussian 09, Revision D.01,
 M. J. Frisch, G. W. Trucks, H. B. Schlegel, G. E. Scuseria, 
 M. A. Robb, J. R. Cheeseman, G. Scalmani, V. Barone, B. Mennucci, 
 G. A. Petersson, H. Nakatsuji, M. Caricato, X. Li, H. P. Hratchian, 
 A. F. Izmaylov, J. Bloino, G. Zheng, J. L. Sonnenberg, M. Hada, 
 M. Ehara, K. Toyota, R. Fukuda, J. Hasegawa, M. Ishida, T. Nakajima, 
 Y. Honda, O. Kitao, H. Nakai, T. Vreven, J. A. Montgomery, Jr., 
 J. E. Peralta, F. Ogliaro, M. Bearpark, J. J. Heyd, E. Brothers, 
 K. N. Kudin, V. N. Staroverov, T. Keith, R. Kobayashi, J. Normand, 
 K. Raghavachari, A. Rendell, J. C. Burant, S. S. Iyengar, J. Tomasi, 
 M. Cossi, N. Rega, J. M. Millam, M. Klene, J. E. Knox, J. B. Cross, 
 V. Bakken, C. Adamo, J. Jaramillo, R. Gomperts, R. E. Stratmann, 
 O. Yazyev, A. J. Austin, R. Cammi, C. Pomelli, J. W. Ochterski, 
 R. L. Martin, K. Morokuma, V. G. Zakrzewski, G. A. Voth, 
 P. Salvador, J. J. Dannenberg, S. Dapprich, A. D. Daniels, 
 O. Farkas, J. B. Foresman, J. V. Ortiz, J. Cioslowski, 
 and D. J. Fox, Gaussian, Inc., Wallingford CT, 2013.
 
 ******************************************
 Gaussian 09:  ES64L-G09RevD.01 24-Apr-2013
                18-Apr-2014 
 ******************************************
 %chk=Cyclopentene_ringclose_TS_mod_opt_NICSplus.chk
 %nprocshared=16
 Will use up to   16 processors via shared memory.
 --------------------------------------
 # Pop=nbo6read b3lyp/6-31G(d) nmr=giao
 --------------------------------------
 1/38=1,163=2/1;
 2/12=2,17=6,18=5,40=1/2;
 3/5=1,6=6,7=1,11=2,16=1,25=1,30=1,74=-5/1,2,8,3;
 4//1;
 5/5=2,38=5/2;
 8/6=1,10=90,11=11/1;
 10/13=100,45=16/2;
 6/7=2,8=2,9=2,10=2,28=1,40=2,64=1,113=1,114=1,124=2103,125=11000/1,12;
 99/9=1/99;
 ---------------------------------
 Cyclopentene_ringclose_TS_mod_opt
 ---------------------------------
 Symbolic Z-matrix:
 Charge = -1 Multiplicity = 1
 C                     0.14464  -1.17446   0.30065 
 H                     0.12723  -2.23438   0.00385 
 H                     0.13686  -1.13981   1.40041 
 C                     1.27758  -0.39895  -0.25933 
 H                     1.52702  -0.60674  -1.30365 
 C                     1.27649   0.92223   0.13703 
 H                     1.77516   1.69482  -0.45029 
 C                    -1.22039  -0.44185  -0.1809 
 H                    -2.03425  -0.95071   0.36171 
 C                    -1.18611   1.03829   0.00022 
 H                    -1.43428   1.65384  -0.8663 
 H                    -1.34329  -0.70718  -1.2415 
 H                    -1.59679   1.42886   0.93814 
 H                     1.08907   1.18978   1.17153 
 Bq                    0.09273  -0.03272  -2.00005 
 Bq                    0.08844  -0.03     -1.7501 
 Bq                    0.08416  -0.02727  -1.50015 
 Bq                    0.07987  -0.02455  -1.25021 
 Bq                    0.07559  -0.02183  -1.00026 
 Bq                    0.0713   -0.01911  -0.75031 
 Bq                    0.06701  -0.01639  -0.50036 
 Bq                    0.06273  -0.01367  -0.25041 
 Bq                    0.05844  -0.01095  -0.00046 
 Bq                    0.05416  -0.00823   0.24948 
 Bq                    0.04987  -0.00551   0.49943 
 Bq                    0.04559  -0.00279   0.74938 
 Bq                    0.0413   -0.00007   0.99933 
 Bq                    0.03701   0.00265   1.24928 
 Bq                    0.03273   0.00538   1.49923 
 Bq                    0.02844   0.0081    1.74918 
 Bq                    0.02416   0.01082   1.99912 
 
                          Input orientation:                          
 ---------------------------------------------------------------------
 Center     Atomic      Atomic             Coordinates (Angstroms)
 Number     Number       Type             X           Y           Z
 ---------------------------------------------------------------------
      1          6           0        0.144638   -1.174463    0.300652
      2          1           0        0.127230   -2.234376    0.003853
      3          1           0        0.136855   -1.139809    1.400405
      4          6           0        1.277576   -0.398949   -0.259326
      5          1           0        1.527024   -0.606739   -1.303647
      6          6           0        1.276494    0.922225    0.137032
      7          1           0        1.775156    1.694824   -0.450285
      8          6           0       -1.220387   -0.441850   -0.180895
      9          1           0       -2.034255   -0.950706    0.361708
     10          6           0       -1.186106    1.038289    0.000218
     11          1           0       -1.434283    1.653840   -0.866301
     12          1           0       -1.343292   -0.707180   -1.241497
     13          1           0       -1.596794    1.428856    0.938139
     14          1           0        1.089074    1.189777    1.171535
     15          0           0        0.092729   -0.032717   -2.000051
     16          0           0        0.088444   -0.029996   -1.750103
     17          0           0        0.084158   -0.027275   -1.500155
     18          0           0        0.079872   -0.024554   -1.250206
     19          0           0        0.075586   -0.021833   -1.000258
     20          0           0        0.071300   -0.019112   -0.750309
     21          0           0        0.067015   -0.016391   -0.500361
     22          0           0        0.062729   -0.013670   -0.250412
     23          0           0        0.058443   -0.010950   -0.000464
     24          0           0        0.054157   -0.008229    0.249485
     25          0           0        0.049871   -0.005508    0.499433
     26          0           0        0.045586   -0.002787    0.749382
     27          0           0        0.041300   -0.000066    0.999330
     28          0           0        0.037014    0.002655    1.249278
     29          0           0        0.032728    0.005376    1.499227
     30          0           0        0.028442    0.008097    1.749175
     31          0           0        0.024157    0.010818    1.999124
 ---------------------------------------------------------------------
                    Distance matrix (angstroms):
                    1          2          3          4          5
     1  C    0.000000
     2  H    1.100822   0.000000
     3  H    1.100326   1.774409   0.000000
     4  C    1.482749   2.182052   2.145886   0.000000
     5  H    2.192505   2.513599   3.086848   1.093621   0.000000
     6  C    2.388299   3.361945   2.673364   1.379348   2.115668
     7  H    3.384568   4.284917   3.760881   2.160541   2.467182
     8  C    1.622314   2.250190   2.197672   2.499562   2.972546
     9  H    2.191203   2.539269   2.414202   3.414432   3.946445
    10  C    2.599502   3.526358   2.907724   2.864043   3.430343
    11  H    3.442974   4.279453   3.925673   3.454930   3.751110
    12  H    2.193288   2.458792   3.059027   2.815780   2.872745
    13  H    3.196286   4.155047   3.133252   3.610650   4.350574
    14  H    2.690730   3.743454   2.527068   2.146380   3.089627
    15  Bq   2.568952   2.977268   3.576409   2.137314   1.694604
    16  Bq   2.349161   2.817296   3.340618   1.942313   1.612907
    17  Bq   2.136025   2.671177   3.107049   1.761262   1.567245
    18  Bq   1.931747   2.541303   2.876244   1.598909   1.560783
    19  Bq   1.739451   2.430278   2.648925   1.461498   1.593999
    20  Bq   1.563564   2.340787   2.426073   1.356629   1.664518
    21  Bq   1.410240   2.275371   2.209039   1.292249   1.767882
    22  Bq   1.287564   2.236145   1.999720   1.274509   1.898735
    23  Bq   1.204933   2.224494   1.800807   1.305312   2.051824
    24  Bq   1.170858   2.240849   1.616147   1.381414   2.222559
    25  Bq   1.189517   2.284609   1.451191   1.495918   2.407189
    26  Bq   1.258568   2.354245   1.313385   1.640803   2.602757
    27  Bq   1.370415   2.447550   1.212026   1.808784   2.806979
    28  Bq   1.515613   2.561939   1.156733   1.994033   3.018099
    29  Bq   1.685564   2.694728   1.154147   2.192175   3.234765
    30  Bq   1.873544   2.843342   1.204608   2.400021   3.455936
    31  Bq   2.074660   3.005432   1.301963   2.615256   3.680799
                    6          7          8          9         10
     6  C    0.000000
     7  H    1.091107   0.000000
     8  C    2.862899   3.689339   0.000000
     9  H    3.810434   4.708479   1.102603   0.000000
    10  C    2.469127   3.066442   1.491573   2.192289   0.000000
    11  H    2.981652   3.236549   2.215276   2.941366   1.091490
    12  H    3.379139   4.015017   1.100174   1.762669   2.147842
    13  H    3.025596   3.656297   2.212117   2.487159   1.095857
    14  H    1.084853   1.831961   3.134467   3.872037   2.563470
    15  Bq   2.623040   2.866484   2.280569   3.308274   2.604525
    16  Bq   2.424761   2.740352   2.084484   3.132619   2.414401
    17  Bq   2.236872   2.631981   1.901093   2.967647   2.236094
    18  Bq   2.062213   2.543644   1.734427   2.815237   2.072654
    19  Bq   1.904430   2.477482   1.589753   2.677533   1.927869
    20  Bq   1.768045   2.435306   1.473566   2.556915   1.806228
    21  Bq   1.658346   2.418370   1.393010   2.455899   1.712671
    22  Bq   1.580898   2.427202   1.354458   2.376987   1.651975
    23  Bq   1.540574   2.461525   1.361483   2.322433   1.627822
    24  Bq   1.540291   2.520298   1.413406   2.293975   1.641824
    25  Bq   1.580071   2.601865   1.505589   2.292586   1.693035
    26  Bq   1.657032   2.704163   1.631220   2.318314   1.778243
    27  Bq   1.766319   2.824941   1.783244   2.370275   1.892863
    28  Bq   1.902370   2.961940   1.955515   2.446801   2.031923
    29  Bq   2.059889   3.113019   2.143156   2.545675   2.190775
    30  Bq   2.234339   3.276230   2.342477   2.664412   2.365434
    31  Bq   2.422065   3.449852   2.550741   2.800485   2.552657
                   11         12         13         14         15
    11  H    0.000000
    12  H    2.392377   0.000000
    13  H    1.825659   3.062307   0.000000
    14  H    3.276501   3.916321   2.706570   0.000000
    15  Bq   2.541974   1.758540   3.691022   3.542055   0.000000
    16  Bq   2.436207   1.663468   3.492122   3.320403   0.250000
    17  Bq   2.352356   1.602120   3.300181   3.103062   0.500000
    18  Bq   2.292827   1.578433   3.116483   2.891006   0.750000
    19  Bq   2.259542   1.594087   2.942573   2.685487   1.000000
    20  Bq   2.253665   1.647961   2.780289   2.488124   1.250000
    21  Bq   2.275408   1.736501   2.631783   2.301018   1.500000
    22  Bq   2.323995   1.854750   2.499510   2.126877   1.750000
    23  Bq   2.397797   1.997439   2.386174   1.969143   2.000000
    24  Bq   2.494575   2.159728   2.294580   1.832061   2.250000
    25  Bq   2.611777   2.337538   2.227413   1.720572   2.500000
    26  Bq   2.746790   2.527597   2.186925   1.639906   2.750000
    27  Bq   2.897124   2.727345   2.174607   1.594745   3.000000
    28  Bq   3.060523   2.934804   2.190933   1.588123   3.250000
    29  Bq   3.235008   3.148450   2.235276   1.620511   3.500000
    30  Bq   3.418882   3.367105   2.306021   1.689667   3.750000
    31  Bq   3.610710   3.589855   2.400834   1.791340   4.000000
                   16         17         18         19         20
    16  Bq   0.000000
    17  Bq   0.250000   0.000000
    18  Bq   0.500000   0.250000   0.000000
    19  Bq   0.750000   0.500000   0.250000   0.000000
    20  Bq   1.000000   0.750000   0.500000   0.250000   0.000000
    21  Bq   1.250000   1.000000   0.750000   0.500000   0.250000
    22  Bq   1.500000   1.250000   1.000000   0.750000   0.500000
    23  Bq   1.750000   1.500000   1.250000   1.000000   0.750000
    24  Bq   2.000000   1.750000   1.500000   1.250000   1.000000
    25  Bq   2.250000   2.000000   1.750000   1.500000   1.250000
    26  Bq   2.500000   2.250000   2.000000   1.750000   1.500000
    27  Bq   2.750000   2.500000   2.250000   2.000000   1.750000
    28  Bq   3.000000   2.750000   2.500000   2.250000   2.000000
    29  Bq   3.250000   3.000000   2.750000   2.500000   2.250000
    30  Bq   3.500000   3.250000   3.000000   2.750000   2.500000
    31  Bq   3.750000   3.500000   3.250000   3.000000   2.750000
                   21         22         23         24         25
    21  Bq   0.000000
    22  Bq   0.250000   0.000000
    23  Bq   0.500000   0.250000   0.000000
    24  Bq   0.750000   0.500000   0.250000   0.000000
    25  Bq   1.000000   0.750000   0.500000   0.250000   0.000000
    26  Bq   1.250000   1.000000   0.750000   0.500000   0.250000
    27  Bq   1.500000   1.250000   1.000000   0.750000   0.500000
    28  Bq   1.750000   1.500000   1.250000   1.000000   0.750000
    29  Bq   2.000000   1.750000   1.500000   1.250000   1.000000
    30  Bq   2.250000   2.000000   1.750000   1.500000   1.250000
    31  Bq   2.500000   2.250000   2.000000   1.750000   1.500000
                   26         27         28         29         30
    26  Bq   0.000000
    27  Bq   0.250000   0.000000
    28  Bq   0.500000   0.250000   0.000000
    29  Bq   0.750000   0.500000   0.250000   0.000000
    30  Bq   1.000000   0.750000   0.500000   0.250000   0.000000
    31  Bq   1.250000   1.000000   0.750000   0.500000   0.250000
                   31
    31  Bq   0.000000
 Symmetry turned off:
 Cannot cope with ghost atoms or with translation vectors.
 Stoichiometry    C5H9(1-)
 Framework group  C1[X(C5H9)]
 NUMDOF-- NAT=    14 NAtoms=    31
 Deg. of freedom     0
 Full point group                 C1      NOp   1
 Rotational constants (GHZ):      6.9924645      4.9234452      3.3095202
 Standard basis: 6-31G(d) (6D, 7F)
 Warning:  center  15 has no basis functions!
 Warning:  center  16 has no basis functions!
 Warning:  center  17 has no basis functions!
 Warning:  center  18 has no basis functions!
 Warning:  center  19 has no basis functions!
 Warning:  center  20 has no basis functions!
 Warning:  center  21 has no basis functions!
 Warning:  center  22 has no basis functions!
 Warning:  center  23 has no basis functions!
 Warning:  center  24 has no basis functions!
 Warning:  center  25 has no basis functions!
 Warning:  center  26 has no basis functions!
 Warning:  center  27 has no basis functions!
 Warning:  center  28 has no basis functions!
 Warning:  center  29 has no basis functions!
 Warning:  center  30 has no basis functions!
 Warning:  center  31 has no basis functions!
    93 basis functions,   176 primitive gaussians,    93 cartesian basis functions
    20 alpha electrons       20 beta electrons
       nuclear repulsion energy       170.1046423465 Hartrees.
 NAtoms=   31 NActive=   31 NUniq=   31 SFac= 1.00D+00 NAtFMM=   60 NAOKFM=F Big=F
 Integral buffers will be    131072 words long.
 Raffenetti 2 integral format.
 Two-electron integral symmetry is turned off.
 One-electron integrals computed using PRISM.
 PrsmSu:  requested number of processors reduced to:  10 ShMem   1 Linda.
 NBasis=    93 RedAO= T EigKep=  5.07D-03  NBF=    93
 NBsUse=    93 1.00D-06 EigRej= -1.00D+00 NBFU=    93
 ExpMin= 1.61D-01 ExpMax= 3.05D+03 ExpMxC= 4.57D+02 IAcc=1 IRadAn=         1 AccDes= 0.00D+00
 Harris functional with IExCor=  402 and IRadAn=       1 diagonalized for initial guess.
 HarFok:  IExCor=  402 AccDes= 0.00D+00 IRadAn=         1 IDoV= 1 UseB2=F ITyADJ=14
 ICtDFT=  3500011 ScaDFX=  1.000000  1.000000  1.000000  1.000000
 FoFCou: FMM=F IPFlag=           0 FMFlag=      100000 FMFlg1=           0
         NFxFlg=           0 DoJE=T BraDBF=F KetDBF=T FulRan=T
         wScrn=  0.000000 ICntrl=     500 IOpCl=  0 I1Cent=   200000004 NGrid=           0
         NMat0=    1 NMatS0=      1 NMatT0=    0 NMatD0=    1 NMtDS0=    0 NMtDT0=    0
 Symmetry not used in FoFCou.
 Keep R1 ints in memory in canonical form, NReq=10518369.
 Requested convergence on RMS density matrix=1.00D-08 within 128 cycles.
 Requested convergence on MAX density matrix=1.00D-06.
 Requested convergence on             energy=1.00D-06.
 No special actions if energy rises.
 Integral accuracy reduced to 1.0D-05 until final iterations.
 Initial convergence to 1.0D-05 achieved.  Increase integral accuracy.
 SCF Done:  E(RB3LYP) =  -195.818260403     A.U. after   16 cycles
            NFock= 16  Conv=0.22D-08     -V/T= 2.0095
 DoSCS=F DFT=T ScalE2(SS,OS)=  1.000000  1.000000
 Range of M.O.s used for correlation:     1    93
 NBasis=    93 NAE=    20 NBE=    20 NFC=     0 NFV=     0
 NROrb=     93 NOA=    20 NOB=    20 NVA=    73 NVB=    73
          Differentiating once with respect to magnetic field using GIAOs.
          Electric field/nuclear overlap derivatives assumed to be zero.
 Keep R3 ints in memory in canonical form, NReq=11599850.
 PrsmSu:  requested number of processors reduced to:   7 ShMem   1 Linda.
 FoFJK:  IHMeth= 1 ICntrl=    6127 DoSepK=F KAlg= 0 I1Cent=   0 FoldK=F
 IRaf=         1 NMat=   1 IRICut=       1 DoRegI=T DoRafI=F ISym2E= 0.
 CoulSu:  requested number of processors reduced to:  11 ShMem   1 Linda.
          There are     3 degrees of freedom in the 1st order CPHF.  IDoFFX=0 NUNeed=     3.
      3 vectors produced by pass  0 Test12= 4.87D-14 3.33D-08 XBig12= 5.10D+00 8.56D-01.
 AX will form     3 AO Fock derivatives at one time.
      3 vectors produced by pass  1 Test12= 4.87D-14 3.33D-08 XBig12= 1.14D-02 4.64D-02.
      3 vectors produced by pass  2 Test12= 4.87D-14 3.33D-08 XBig12= 3.84D-05 2.39D-03.
      3 vectors produced by pass  3 Test12= 4.87D-14 3.33D-08 XBig12= 1.28D-07 2.08D-04.
      3 vectors produced by pass  4 Test12= 4.87D-14 3.33D-08 XBig12= 3.82D-10 7.44D-06.
      3 vectors produced by pass  5 Test12= 4.87D-14 3.33D-08 XBig12= 7.66D-13 2.93D-07.
 InvSVY:  IOpt=1 It=  1 EMax= 4.44D-16
 Solved reduced A of dimension    18 with     3 vectors.
 Calculating GIAO nuclear magnetic shielding tensors.
 SCF GIAO Magnetic shielding tensor (ppm):
      1  C    Isotropic =   135.0393   Anisotropy =    48.4658
   XX=   159.6861   YX=    11.4228   ZX=     3.8696
   XY=     0.4682   YY=   147.0890   ZY=   -16.5772
   XZ=    -2.1641   YZ=   -50.4228   ZZ=    98.3428
   Eigenvalues:    81.1349   156.6331   167.3498
      2  H    Isotropic =    29.7276   Anisotropy =     8.2724
   XX=    29.6136   YX=    -0.3913   ZX=     0.2140
   XY=    -0.5432   YY=    35.1872   ZY=     0.1581
   XZ=    -0.1227   YZ=    -0.9979   ZZ=    24.3819
   Eigenvalues:    24.3655    29.5747    35.2425
      3  H    Isotropic =    31.7871   Anisotropy =    11.7959
   XX=    29.8805   YX=    -0.6481   ZX=     0.6257
   XY=    -0.6004   YY=    28.3950   ZY=    -3.9812
   XZ=     0.8481   YZ=    -6.5357   ZZ=    37.0858
   Eigenvalues:    25.9028    29.8075    39.6510
      4  C    Isotropic =   127.1812   Anisotropy =    63.0942
   XX=   143.8055   YX=   -12.2454   ZX=    34.6935
   XY=    -7.4709   YY=   125.5544   ZY=    -4.6271
   XZ=    40.3877   YZ=    17.4521   ZZ=   112.1837
   Eigenvalues:    84.4102   127.8894   169.2440
      5  H    Isotropic =    31.8312   Anisotropy =     8.5846
   XX=    29.7828   YX=     2.1170   ZX=    -1.1707
   XY=     0.4078   YY=    30.9125   ZY=     0.9633
   XZ=    -7.4380   YZ=     3.5294   ZZ=    34.7984
   Eigenvalues:    26.2267    31.7127    37.5543
      6  C    Isotropic =   102.5868   Anisotropy =    86.2525
   XX=   134.7546   YX=   -26.5498   ZX=    55.9493
   XY=    -6.5709   YY=   141.0875   ZY=     7.9969
   XZ=    39.9694   YZ=    19.7410   ZZ=    31.9183
   Eigenvalues:    10.2560   137.4160   160.0884
      7  H    Isotropic =    27.8622   Anisotropy =     7.9978
   XX=    28.4621   YX=     1.5011   ZX=     0.3027
   XY=     2.4298   YY=    32.3051   ZY=    -1.4904
   XZ=    -0.4052   YZ=    -0.2038   ZZ=    22.8194
   Eigenvalues:    22.7416    27.6510    33.1941
      8  C    Isotropic =   154.6386   Anisotropy =    27.8747
   XX=   169.3204   YX=     7.8268   ZX=    10.8410
   XY=   -12.6991   YY=   154.2311   ZY=     7.0661
   XZ=    11.7342   YZ=    10.7617   ZZ=   140.3644
   Eigenvalues:   132.5587   158.1354   173.2217
      9  H    Isotropic =    30.6876   Anisotropy =     7.2012
   XX=    33.5273   YX=     1.7185   ZX=    -2.7286
   XY=     0.7366   YY=    30.8899   ZY=    -1.3557
   XZ=    -2.7779   YZ=    -3.0038   ZZ=    27.6456
   Eigenvalues:    25.9999    30.5746    35.4884
     10  C    Isotropic =   168.8647   Anisotropy =    15.9259
   XX=   166.8262   YX=    -3.3785   ZX=    -1.4504
   XY=    -1.6998   YY=   171.9011   ZY=     7.7883
   XZ=    -0.9702   YZ=     9.7613   ZZ=   167.8667
   Eigenvalues:   160.8083   166.3037   179.4820
     11  H    Isotropic =    32.7460   Anisotropy =    10.4435
   XX=    29.9524   YX=    -2.2057   ZX=     1.1367
   XY=    -1.5421   YY=    34.2638   ZY=    -3.3726
   XZ=     3.4823   YZ=    -5.9643   ZZ=    34.0219
   Eigenvalues:    28.8741    29.6556    39.7083
     12  H    Isotropic =    32.9618   Anisotropy =    14.2489
   XX=    29.5972   YX=    -0.2365   ZX=     4.2062
   XY=     0.2036   YY=    31.5481   ZY=     3.1622
   XZ=     6.7324   YZ=     7.0776   ZZ=    37.7402
   Eigenvalues:    25.6575    30.7669    42.4611
     13  H    Isotropic =    33.5618   Anisotropy =    11.9641
   XX=    30.6858   YX=    -3.0112   ZX=    -2.3032
   XY=    -2.4061   YY=    35.0114   ZY=     3.5903
   XZ=    -5.0791   YZ=     5.6977   ZZ=    34.9883
   Eigenvalues:    28.5643    30.5833    41.5379
     14  H    Isotropic =    28.6215   Anisotropy =    11.7135
   XX=    29.7757   YX=     1.3808   ZX=     3.1550
   XY=     0.1998   YY=    26.4024   ZY=     4.3368
   XZ=     5.7768   YZ=     6.8049   ZZ=    29.6865
   Eigenvalues:    21.6246    27.8095    36.4305
     15  Bq   Isotropic =     2.6426   Anisotropy =    11.9734
   XX=     0.3846   YX=    -0.0499   ZX=     0.7891
   XY=    -0.2409   YY=    -3.0803   ZY=     0.0987
   XZ=    -0.9728   YZ=     0.0628   ZZ=    10.6235
   Eigenvalues:    -3.0869     0.3898    10.6249
     16  Bq   Isotropic =     3.7124   Anisotropy =    13.2191
   XX=     1.7821   YX=    -0.1195   ZX=     1.0115
   XY=    -0.3267   YY=    -3.1668   ZY=     0.1476
   XZ=    -1.1265   YZ=     0.2728   ZZ=    12.5220
   Eigenvalues:    -3.1796     1.7917    12.5252
     17  Bq   Isotropic =     5.1245   Anisotropy =    14.5211
   XX=     3.8238   YX=    -0.2938   ZX=     1.2513
   XY=    -0.4688   YY=    -3.2488   ZY=     0.1410
   XZ=    -1.1902   YZ=     0.5595   ZZ=    14.7983
   Eigenvalues:    -3.2761     3.8443    14.8052
     18  Bq   Isotropic =     6.8465   Anisotropy =    15.9096
   XX=     6.5386   YX=    -0.6658   ZX=     1.4786
   XY=    -0.7300   YY=    -3.4412   ZY=    -0.0939
   XZ=    -0.9822   YZ=     0.7856   ZZ=    17.4420
   Eigenvalues:    -3.4960     6.5826    17.4528
     19  Bq   Isotropic =     8.7426   Anisotropy =    17.2867
   XX=     9.7766   YX=    -1.3213   ZX=     1.6209
   XY=    -1.1951   YY=    -3.7685   ZY=    -0.7857
   XZ=    -0.2204   YZ=     0.6976   ZZ=    20.2196
   Eigenvalues:    -3.8844     9.8451    20.2670
     20  Bq   Isotropic =    10.5511   Anisotropy =    18.3545
   XX=    13.0263   YX=    -2.2177   ZX=     1.5613
   XY=    -1.9131   YY=    -3.8785   ZY=    -2.0112
   XZ=     1.3601   YZ=     0.0509   ZZ=    22.5055
   Eigenvalues:    -4.1512    13.0171    22.7874
     21  Bq   Isotropic =    11.9569   Anisotropy =    18.6364
   XX=    15.2683   YX=    -3.0241   ZX=     1.2192
   XY=    -2.7834   YY=    -2.8006   ZY=    -3.3458
   XZ=     3.6233   YZ=    -1.0416   ZZ=    23.4030
   Eigenvalues:    -3.3775    14.8670    24.3812
     22  Bq   Isotropic =    12.7257   Anisotropy =    17.4778
   XX=    15.2438   YX=    -3.2082   ZX=     0.7053
   XY=    -3.5084   YY=     0.3745   ZY=    -3.8199
   XZ=     5.6648   YZ=    -1.8688   ZZ=    22.5587
   Eigenvalues:    -0.5487    14.3482    24.3776
     23  Bq   Isotropic =    12.7313   Anisotropy =    14.8630
   XX=    12.4207   YX=    -2.5513   ZX=     0.3482
   XY=    -3.7814   YY=     4.8683   ZY=    -2.7708
   XZ=     6.3310   YZ=    -1.7355   ZZ=    20.9048
   Eigenvalues:     3.6559    11.8980    22.6400
     24  Bq   Isotropic =    11.9497   Anisotropy =    12.8599
   XX=     7.8835   YX=    -1.4845   ZX=     0.3735
   XY=    -3.5547   YY=     8.2798   ZY=    -0.8057
   XZ=     5.4094   YZ=    -0.9149   ZZ=    19.6857
   Eigenvalues:     5.3724     9.9536    20.5229
     25  Bq   Isotropic =    10.5554   Anisotropy =    12.9953
   XX=     3.6082   YX=    -0.6168   ZX=     0.6040
   XY=    -3.0068   YY=     9.1455   ZY=     0.8232
   XZ=     3.7693   YZ=    -0.2212   ZZ=    18.9124
   Eigenvalues:     2.7729     9.6743    19.2189
     26  Bq   Isotropic =     8.8685   Anisotropy =    13.7198
   XX=     0.7185   YX=    -0.1526   ZX=     0.7001
   XY=    -2.3197   YY=     8.0623   ZY=     1.6367
   XZ=     2.3245   YZ=     0.0937   ZZ=    17.8247
   Eigenvalues:     0.3630     8.2274    18.0150
     27  Bq   Isotropic =     7.1648   Anisotropy =    13.7556
   XX=    -0.8973   YX=     0.0411   ZX=     0.5498
   XY=    -1.6220   YY=     6.2273   ZY=     1.9647
   XZ=     1.3886   YZ=     0.2878   ZZ=    16.1645
   Eigenvalues:    -1.0530     6.2123    16.3352
     28  Bq   Isotropic =     5.5993   Anisotropy =    13.2772
   XX=    -1.7509   YX=     0.1240   ZX=     0.2698
   XY=    -1.0142   YY=     4.2928   ZY=     2.1429
   XZ=     0.8444   YZ=     0.5582   ZZ=    14.2559
   Eigenvalues:    -1.8106     4.1577    14.4508
     29  Bq   Isotropic =     4.2228   Anisotropy =    12.7234
   XX=    -2.2503   YX=     0.1718   ZX=     0.0117
   XY=    -0.5534   YY=     2.4492   ZY=     2.2148
   XZ=     0.4970   YZ=     0.8716   ZZ=    12.4694
   Eigenvalues:    -2.2651     2.2284    12.7050
     30  Bq   Isotropic =     3.0542   Anisotropy =    12.1970
   XX=    -2.5954   YX=     0.2010   ZX=    -0.1425
   XY=    -0.2484   YY=     0.8155   ZY=     2.0989
   XZ=     0.2449   YZ=     1.0752   ZZ=    10.9425
   Eigenvalues:    -2.5959     0.5729    11.1855
     31  Bq   Isotropic =     2.1249   Anisotropy =    11.5455
   XX=    -2.7981   YX=     0.2101   ZX=    -0.1873
   XY=    -0.0724   YY=    -0.4486   ZY=     1.7909
   XZ=     0.0708   YZ=     1.0786   ZZ=     9.6212
   Eigenvalues:    -2.8009    -0.6463     9.8218
 End of Minotr F.D. properties file   721 does not exist.
 End of Minotr F.D. properties file   722 does not exist.
 End of Minotr F.D. properties file   788 does not exist.

 **********************************************************************

            Population analysis using the SCF density.

 **********************************************************************

 Alpha  occ. eigenvalues --   -9.97547  -9.97220  -9.96600  -9.92977  -9.91301
 Alpha  occ. eigenvalues --   -0.57681  -0.49812  -0.44399  -0.34902  -0.33099
 Alpha  occ. eigenvalues --   -0.25326  -0.22689  -0.18905  -0.17815  -0.14887
 Alpha  occ. eigenvalues --   -0.12522  -0.12173  -0.11371  -0.01317   0.08981
 Alpha virt. eigenvalues --    0.24530   0.28895   0.31342   0.32505   0.33767
 Alpha virt. eigenvalues --    0.34555   0.36533   0.37474   0.39369   0.42571
 Alpha virt. eigenvalues --    0.43674   0.48571   0.50240   0.55028   0.71414
 Alpha virt. eigenvalues --    0.72105   0.75204   0.77761   0.79695   0.81073
 Alpha virt. eigenvalues --    0.83159   0.85361   0.87595   0.90587   0.93221
 Alpha virt. eigenvalues --    0.96971   1.00325   1.01329   1.04936   1.06837
 Alpha virt. eigenvalues --    1.08284   1.09306   1.11893   1.12369   1.14678
 Alpha virt. eigenvalues --    1.15882   1.16547   1.23554   1.31118   1.39955
 Alpha virt. eigenvalues --    1.49465   1.60445   1.67542   1.69651   1.83408
 Alpha virt. eigenvalues --    1.88110   1.92276   1.99083   2.01543   2.12678
 Alpha virt. eigenvalues --    2.16915   2.20539   2.24389   2.25288   2.27124
 Alpha virt. eigenvalues --    2.32852   2.38076   2.40294   2.43394   2.56174
 Alpha virt. eigenvalues --    2.56933   2.67688   2.71821   2.73444   2.83209
 Alpha virt. eigenvalues --    2.90726   2.97670   3.01379   4.34932   4.44823
 Alpha virt. eigenvalues --    4.50923   4.67186   4.72422
          Condensed to atoms (all electrons):
               1          2          3          4          5          6
     1  C    5.168959   0.300210   0.357371   0.491786  -0.064090  -0.065226
     2  H    0.300210   0.769261  -0.052847  -0.026115  -0.006934   0.007099
     3  H    0.357371  -0.052847   0.720062  -0.033473   0.007638  -0.010348
     4  C    0.491786  -0.026115  -0.033473   5.003748   0.348277   0.626718
     5  H   -0.064090  -0.006934   0.007638   0.348277   0.775672  -0.057080
     6  C   -0.065226   0.007099  -0.010348   0.626718  -0.057080   4.963157
     7  H    0.007411  -0.000312  -0.000212  -0.032893  -0.012628   0.338199
     8  C    0.246548  -0.025202  -0.054779  -0.105180  -0.004450  -0.023439
     9  H   -0.057925   0.004904  -0.006247   0.005309  -0.000172   0.002953
    10  C   -0.079086   0.005876  -0.006938  -0.082331  -0.002337   0.109895
    11  H    0.003768  -0.000224  -0.000127   0.002583   0.000126  -0.003128
    12  H   -0.046431  -0.004184   0.007036  -0.001492   0.003456   0.001165
    13  H    0.002828  -0.000204   0.002331   0.001585   0.000041  -0.004018
    14  H   -0.012621  -0.000049   0.008265  -0.030933   0.008358   0.367117
    15  Bq   0.000000   0.000000   0.000000   0.000000   0.000000   0.000000
    16  Bq   0.000000   0.000000   0.000000   0.000000   0.000000   0.000000
    17  Bq   0.000000   0.000000   0.000000   0.000000   0.000000   0.000000
    18  Bq   0.000000   0.000000   0.000000   0.000000   0.000000   0.000000
    19  Bq   0.000000   0.000000   0.000000   0.000000   0.000000   0.000000
    20  Bq   0.000000   0.000000   0.000000   0.000000   0.000000   0.000000
    21  Bq   0.000000   0.000000   0.000000   0.000000   0.000000   0.000000
    22  Bq   0.000000   0.000000   0.000000   0.000000   0.000000   0.000000
    23  Bq   0.000000   0.000000   0.000000   0.000000   0.000000   0.000000
    24  Bq   0.000000   0.000000   0.000000   0.000000   0.000000   0.000000
    25  Bq   0.000000   0.000000   0.000000   0.000000   0.000000   0.000000
    26  Bq   0.000000   0.000000   0.000000   0.000000   0.000000   0.000000
    27  Bq   0.000000   0.000000   0.000000   0.000000   0.000000   0.000000
    28  Bq   0.000000   0.000000   0.000000   0.000000   0.000000   0.000000
    29  Bq   0.000000   0.000000   0.000000   0.000000   0.000000   0.000000
    30  Bq   0.000000   0.000000   0.000000   0.000000   0.000000   0.000000
    31  Bq   0.000000   0.000000   0.000000   0.000000   0.000000   0.000000
               7          8          9         10         11         12
     1  C    0.007411   0.246548  -0.057925  -0.079086   0.003768  -0.046431
     2  H   -0.000312  -0.025202   0.004904   0.005876  -0.000224  -0.004184
     3  H   -0.000212  -0.054779  -0.006247  -0.006938  -0.000127   0.007036
     4  C   -0.032893  -0.105180   0.005309  -0.082331   0.002583  -0.001492
     5  H   -0.012628  -0.004450  -0.000172  -0.002337   0.000126   0.003456
     6  C    0.338199  -0.023439   0.002953   0.109895  -0.003128   0.001165
     7  H    0.728786   0.001353  -0.000006   0.003851  -0.000331  -0.000052
     8  C    0.001353   5.043926   0.345429   0.519994  -0.037985   0.354810
     9  H   -0.000006   0.345429   0.772440  -0.045637   0.005276  -0.051432
    10  C    0.003851   0.519994  -0.045637   5.330598   0.361152  -0.036576
    11  H   -0.000331  -0.037985   0.005276   0.361152   0.734667  -0.013212
    12  H   -0.000052   0.354810  -0.051432  -0.036576  -0.013212   0.728185
    13  H    0.000102  -0.049797  -0.010048   0.351078  -0.062092   0.007073
    14  H   -0.065452  -0.003349  -0.000182  -0.019985   0.000218   0.000208
    15  Bq   0.000000   0.000000   0.000000   0.000000   0.000000   0.000000
    16  Bq   0.000000   0.000000   0.000000   0.000000   0.000000   0.000000
    17  Bq   0.000000   0.000000   0.000000   0.000000   0.000000   0.000000
    18  Bq   0.000000   0.000000   0.000000   0.000000   0.000000   0.000000
    19  Bq   0.000000   0.000000   0.000000   0.000000   0.000000   0.000000
    20  Bq   0.000000   0.000000   0.000000   0.000000   0.000000   0.000000
    21  Bq   0.000000   0.000000   0.000000   0.000000   0.000000   0.000000
    22  Bq   0.000000   0.000000   0.000000   0.000000   0.000000   0.000000
    23  Bq   0.000000   0.000000   0.000000   0.000000   0.000000   0.000000
    24  Bq   0.000000   0.000000   0.000000   0.000000   0.000000   0.000000
    25  Bq   0.000000   0.000000   0.000000   0.000000   0.000000   0.000000
    26  Bq   0.000000   0.000000   0.000000   0.000000   0.000000   0.000000
    27  Bq   0.000000   0.000000   0.000000   0.000000   0.000000   0.000000
    28  Bq   0.000000   0.000000   0.000000   0.000000   0.000000   0.000000
    29  Bq   0.000000   0.000000   0.000000   0.000000   0.000000   0.000000
    30  Bq   0.000000   0.000000   0.000000   0.000000   0.000000   0.000000
    31  Bq   0.000000   0.000000   0.000000   0.000000   0.000000   0.000000
              13         14         15         16         17         18
     1  C    0.002828  -0.012621   0.000000   0.000000   0.000000   0.000000
     2  H   -0.000204  -0.000049   0.000000   0.000000   0.000000   0.000000
     3  H    0.002331   0.008265   0.000000   0.000000   0.000000   0.000000
     4  C    0.001585  -0.030933   0.000000   0.000000   0.000000   0.000000
     5  H    0.000041   0.008358   0.000000   0.000000   0.000000   0.000000
     6  C   -0.004018   0.367117   0.000000   0.000000   0.000000   0.000000
     7  H    0.000102  -0.065452   0.000000   0.000000   0.000000   0.000000
     8  C   -0.049797  -0.003349   0.000000   0.000000   0.000000   0.000000
     9  H   -0.010048  -0.000182   0.000000   0.000000   0.000000   0.000000
    10  C    0.351078  -0.019985   0.000000   0.000000   0.000000   0.000000
    11  H   -0.062092   0.000218   0.000000   0.000000   0.000000   0.000000
    12  H    0.007073   0.000208   0.000000   0.000000   0.000000   0.000000
    13  H    0.759960   0.001364   0.000000   0.000000   0.000000   0.000000
    14  H    0.001364   0.678644   0.000000   0.000000   0.000000   0.000000
    15  Bq   0.000000   0.000000   0.000000   0.000000   0.000000   0.000000
    16  Bq   0.000000   0.000000   0.000000   0.000000   0.000000   0.000000
    17  Bq   0.000000   0.000000   0.000000   0.000000   0.000000   0.000000
    18  Bq   0.000000   0.000000   0.000000   0.000000   0.000000   0.000000
    19  Bq   0.000000   0.000000   0.000000   0.000000   0.000000   0.000000
    20  Bq   0.000000   0.000000   0.000000   0.000000   0.000000   0.000000
    21  Bq   0.000000   0.000000   0.000000   0.000000   0.000000   0.000000
    22  Bq   0.000000   0.000000   0.000000   0.000000   0.000000   0.000000
    23  Bq   0.000000   0.000000   0.000000   0.000000   0.000000   0.000000
    24  Bq   0.000000   0.000000   0.000000   0.000000   0.000000   0.000000
    25  Bq   0.000000   0.000000   0.000000   0.000000   0.000000   0.000000
    26  Bq   0.000000   0.000000   0.000000   0.000000   0.000000   0.000000
    27  Bq   0.000000   0.000000   0.000000   0.000000   0.000000   0.000000
    28  Bq   0.000000   0.000000   0.000000   0.000000   0.000000   0.000000
    29  Bq   0.000000   0.000000   0.000000   0.000000   0.000000   0.000000
    30  Bq   0.000000   0.000000   0.000000   0.000000   0.000000   0.000000
    31  Bq   0.000000   0.000000   0.000000   0.000000   0.000000   0.000000
              19         20         21         22         23         24
     1  C    0.000000   0.000000   0.000000   0.000000   0.000000   0.000000
     2  H    0.000000   0.000000   0.000000   0.000000   0.000000   0.000000
     3  H    0.000000   0.000000   0.000000   0.000000   0.000000   0.000000
     4  C    0.000000   0.000000   0.000000   0.000000   0.000000   0.000000
     5  H    0.000000   0.000000   0.000000   0.000000   0.000000   0.000000
     6  C    0.000000   0.000000   0.000000   0.000000   0.000000   0.000000
     7  H    0.000000   0.000000   0.000000   0.000000   0.000000   0.000000
     8  C    0.000000   0.000000   0.000000   0.000000   0.000000   0.000000
     9  H    0.000000   0.000000   0.000000   0.000000   0.000000   0.000000
    10  C    0.000000   0.000000   0.000000   0.000000   0.000000   0.000000
    11  H    0.000000   0.000000   0.000000   0.000000   0.000000   0.000000
    12  H    0.000000   0.000000   0.000000   0.000000   0.000000   0.000000
    13  H    0.000000   0.000000   0.000000   0.000000   0.000000   0.000000
    14  H    0.000000   0.000000   0.000000   0.000000   0.000000   0.000000
    15  Bq   0.000000   0.000000   0.000000   0.000000   0.000000   0.000000
    16  Bq   0.000000   0.000000   0.000000   0.000000   0.000000   0.000000
    17  Bq   0.000000   0.000000   0.000000   0.000000   0.000000   0.000000
    18  Bq   0.000000   0.000000   0.000000   0.000000   0.000000   0.000000
    19  Bq   0.000000   0.000000   0.000000   0.000000   0.000000   0.000000
    20  Bq   0.000000   0.000000   0.000000   0.000000   0.000000   0.000000
    21  Bq   0.000000   0.000000   0.000000   0.000000   0.000000   0.000000
    22  Bq   0.000000   0.000000   0.000000   0.000000   0.000000   0.000000
    23  Bq   0.000000   0.000000   0.000000   0.000000   0.000000   0.000000
    24  Bq   0.000000   0.000000   0.000000   0.000000   0.000000   0.000000
    25  Bq   0.000000   0.000000   0.000000   0.000000   0.000000   0.000000
    26  Bq   0.000000   0.000000   0.000000   0.000000   0.000000   0.000000
    27  Bq   0.000000   0.000000   0.000000   0.000000   0.000000   0.000000
    28  Bq   0.000000   0.000000   0.000000   0.000000   0.000000   0.000000
    29  Bq   0.000000   0.000000   0.000000   0.000000   0.000000   0.000000
    30  Bq   0.000000   0.000000   0.000000   0.000000   0.000000   0.000000
    31  Bq   0.000000   0.000000   0.000000   0.000000   0.000000   0.000000
              25         26         27         28         29         30
     1  C    0.000000   0.000000   0.000000   0.000000   0.000000   0.000000
     2  H    0.000000   0.000000   0.000000   0.000000   0.000000   0.000000
     3  H    0.000000   0.000000   0.000000   0.000000   0.000000   0.000000
     4  C    0.000000   0.000000   0.000000   0.000000   0.000000   0.000000
     5  H    0.000000   0.000000   0.000000   0.000000   0.000000   0.000000
     6  C    0.000000   0.000000   0.000000   0.000000   0.000000   0.000000
     7  H    0.000000   0.000000   0.000000   0.000000   0.000000   0.000000
     8  C    0.000000   0.000000   0.000000   0.000000   0.000000   0.000000
     9  H    0.000000   0.000000   0.000000   0.000000   0.000000   0.000000
    10  C    0.000000   0.000000   0.000000   0.000000   0.000000   0.000000
    11  H    0.000000   0.000000   0.000000   0.000000   0.000000   0.000000
    12  H    0.000000   0.000000   0.000000   0.000000   0.000000   0.000000
    13  H    0.000000   0.000000   0.000000   0.000000   0.000000   0.000000
    14  H    0.000000   0.000000   0.000000   0.000000   0.000000   0.000000
    15  Bq   0.000000   0.000000   0.000000   0.000000   0.000000   0.000000
    16  Bq   0.000000   0.000000   0.000000   0.000000   0.000000   0.000000
    17  Bq   0.000000   0.000000   0.000000   0.000000   0.000000   0.000000
    18  Bq   0.000000   0.000000   0.000000   0.000000   0.000000   0.000000
    19  Bq   0.000000   0.000000   0.000000   0.000000   0.000000   0.000000
    20  Bq   0.000000   0.000000   0.000000   0.000000   0.000000   0.000000
    21  Bq   0.000000   0.000000   0.000000   0.000000   0.000000   0.000000
    22  Bq   0.000000   0.000000   0.000000   0.000000   0.000000   0.000000
    23  Bq   0.000000   0.000000   0.000000   0.000000   0.000000   0.000000
    24  Bq   0.000000   0.000000   0.000000   0.000000   0.000000   0.000000
    25  Bq   0.000000   0.000000   0.000000   0.000000   0.000000   0.000000
    26  Bq   0.000000   0.000000   0.000000   0.000000   0.000000   0.000000
    27  Bq   0.000000   0.000000   0.000000   0.000000   0.000000   0.000000
    28  Bq   0.000000   0.000000   0.000000   0.000000   0.000000   0.000000
    29  Bq   0.000000   0.000000   0.000000   0.000000   0.000000   0.000000
    30  Bq   0.000000   0.000000   0.000000   0.000000   0.000000   0.000000
    31  Bq   0.000000   0.000000   0.000000   0.000000   0.000000   0.000000
              31
     1  C    0.000000
     2  H    0.000000
     3  H    0.000000
     4  C    0.000000
     5  H    0.000000
     6  C    0.000000
     7  H    0.000000
     8  C    0.000000
     9  H    0.000000
    10  C    0.000000
    11  H    0.000000
    12  H    0.000000
    13  H    0.000000
    14  H    0.000000
    15  Bq   0.000000
    16  Bq   0.000000
    17  Bq   0.000000
    18  Bq   0.000000
    19  Bq   0.000000
    20  Bq   0.000000
    21  Bq   0.000000
    22  Bq   0.000000
    23  Bq   0.000000
    24  Bq   0.000000
    25  Bq   0.000000
    26  Bq   0.000000
    27  Bq   0.000000
    28  Bq   0.000000
    29  Bq   0.000000
    30  Bq   0.000000
    31  Bq   0.000000
 Mulliken charges:
               1
     1  C   -0.253501
     2  H    0.028721
     3  H    0.062268
     4  C   -0.167588
     5  H    0.004123
     6  C   -0.253064
     7  H    0.032184
     8  C   -0.207879
     9  H    0.035337
    10  C   -0.409555
    11  H    0.009309
    12  H    0.051447
    13  H   -0.000203
    14  H    0.068400
    15  Bq   0.000000
    16  Bq   0.000000
    17  Bq   0.000000
    18  Bq   0.000000
    19  Bq   0.000000
    20  Bq   0.000000
    21  Bq   0.000000
    22  Bq   0.000000
    23  Bq   0.000000
    24  Bq   0.000000
    25  Bq   0.000000
    26  Bq   0.000000
    27  Bq   0.000000
    28  Bq   0.000000
    29  Bq   0.000000
    30  Bq   0.000000
    31  Bq   0.000000
 Sum of Mulliken charges =  -1.00000
 Mulliken charges with hydrogens summed into heavy atoms:
               1
     1  C   -0.162512
     4  C   -0.163465
     6  C   -0.152479
     8  C   -0.121095
    10  C   -0.400448
    15  Bq   0.000000
    16  Bq   0.000000
    17  Bq   0.000000
    18  Bq   0.000000
    19  Bq   0.000000
    20  Bq   0.000000
    21  Bq   0.000000
    22  Bq   0.000000
    23  Bq   0.000000
    24  Bq   0.000000
    25  Bq   0.000000
    26  Bq   0.000000
    27  Bq   0.000000
    28  Bq   0.000000
    29  Bq   0.000000
    30  Bq   0.000000
    31  Bq   0.000000
 Electronic spatial extent (au):  <R**2>=            462.5883
 Charge=             -1.0000 electrons
 Dipole moment (field-independent basis, Debye):
    X=             -0.1539    Y=             -1.2130    Z=              0.0584  Tot=              1.2241
 Quadrupole moment (field-independent basis, Debye-Ang):
   XX=            -47.6511   YY=            -42.5626   ZZ=            -36.1881
   XY=              3.1631   XZ=             -0.5145   YZ=              0.1854
 Traceless Quadrupole moment (field-independent basis, Debye-Ang):
   XX=             -5.5172   YY=             -0.4287   ZZ=              5.9459
   XY=              3.1631   XZ=             -0.5145   YZ=              0.1854
 Octapole moment (field-independent basis, Debye-Ang**2):
  XXX=             -1.5900  YYY=             -3.2034  ZZZ=              0.5241  XYY=              1.9267
  XXY=             -1.2329  XXZ=             -0.4531  XZZ=              0.2865  YZZ=             -0.1393
  YYZ=             -0.9389  XYZ=              0.0623
 Hexadecapole moment (field-independent basis, Debye-Ang**3):
 XXXX=           -392.5533 YYYY=           -270.9882 ZZZZ=            -89.6008 XXXY=             12.6885
 XXXZ=             -3.3549 YYYX=              7.3973 YYYZ=              1.1107 ZZZX=              0.3487
 ZZZY=              0.3494 XXYY=           -109.5643 XXZZ=            -73.5965 YYZZ=            -58.6147
 XXYZ=             -1.2164 YYXZ=             -0.5113 ZZXY=              1.5260
 N-N= 1.701046423465D+02 E-N=-8.014964111225D+02  KE= 1.939786676805D+02
 Running external command "gaunbo6 R"
         input file       "/home/alphaomega/rpaton/Gau-1935.EIn"
         output file      "/home/alphaomega/rpaton/Gau-1935.EOu"
         message file     "/home/alphaomega/rpaton/Gau-1935.EMs"
         fchk file        "/home/alphaomega/rpaton/Gau-1935.EFC"
         mat. el file     "/home/alphaomega/rpaton/Gau-1935.EUF"

 Writing Wrt12E file "/home/alphaomega/rpaton/Gau-1935.EUF"
 Gaussian matrix elements                                         Version   1 NLab= 7 Len12L=8 Len4L=8
 Write GAUSSIAN SCALARS               from file   501 offset           0 to matrix element file.
 Write OVERLAP                        from file   514 offset           0 to matrix element file.
 Write CORE HAMILTONIAN ALPHA         from file   515 offset           0 to matrix element file.
 Write CORE HAMILTONIAN BETA          from file   515 offset        4371 to matrix element file.
 Write KINETIC ENERGY                 from file   516 offset           0 to matrix element file.
 Write ORTHOGONAL BASIS               from file   685 offset           0 to matrix element file.
 Write DIPOLE INTEGRALS               from file   518 offset           0 to matrix element file.
 Write DIP VEL INTEGRALS              from file   572 offset           0 to matrix element file.
 Write R X DEL INTEGRALS              from file   572 offset       13113 to matrix element file.
 Write ALPHA ORBITAL ENERGIES         from file     0 offset           0 to matrix element file.
 Write ALPHA MO COEFFICIENTS          from file 10524 offset           0 to matrix element file.
 Write ALPHA DENSITY MATRIX           from file     0 offset           0 to matrix element file.
 Write ALPHA SCF DENSITY MATRIX       from file 10528 offset           0 to matrix element file.
 Write ALPHA FOCK MATRIX              from file 10536 offset           0 to matrix element file.
 Write ALPHA DENSITY DERIVATIVES      from file   592 offset           0 to matrix element file.
 Write ALPHA MO DERIVATIVES           from file     0 offset           0 to matrix element file.
 Compute GIAO d2H/dBdm
 ShPair: Thresh= 1.00D-10 NBox=     0 BxSize= 0.00D+00 RnKept= 8.90D+00
         NSMCal=                  741 NSMKep=                 736
 Compute GIAO d2H/dBdm, IAt=     1 NDo=    11
 Compute GIAO d2H/dBdm, IAt=    12 NDo=    11
 Compute GIAO d2H/dBdm, IAt=    23 NDo=     9
 Write GIAO D2H/DBDM                  from file 19999 offset           0 to matrix element file.
 Compute GIAO L/R3
 Compute GIAO L/R3, IAt=     1 NDo=    11
 Compute GIAO L/R3, IAt=    12 NDo=    11
 Compute GIAO L/R3, IAt=    23 NDo=     9
 Write GIAO L/R3                      from file 19999 offset           0 to matrix element file.
 No 2e integrals to process.
 Perform NBO analysis...

 *********************************** NBO 6.0 ***********************************
             N A T U R A L   A T O M I C   O R B I T A L   A N D
          N A T U R A L   B O N D   O R B I T A L   A N A L Y S I S
 **************************** Robert Paton (100196) ****************************
  (c) Copyright 1996-2014 Board of Regents of the University of Wisconsin System
      on behalf of the Theoretical Chemistry Institute.  All rights reserved.

          Cite this program as:

          NBO 6.0.  E. D. Glendening, J. K. Badenhoop, A. E. Reed,
          J. E. Carpenter, J. A. Bohmann, C. M. Morales, C. R. Landis,
          and F. Weinhold (Theoretical Chemistry Institute, University
          of Wisconsin, Madison, WI, 2013); http://nbo6.chem.wisc.edu/

       /NCS    / : Natural Chemical Shielding Analysis
                   including chemical shielding anisotropy
                   in the molecular Cartesian axes
                   Print threshold reset to 1. ppm

 Filename set to /home/alphaomega/rpaton/Gau-1935

 Job title:  Cyclopentene_ringclose_TS_mod_opt


 NATURAL POPULATIONS:  Natural atomic orbital occupancies

  NAO Atom No lang   Type(AO)    Occupancy      Energy
 -------------------------------------------------------
   1    C  1  s      Cor( 1s)     1.99932      -9.84005
   2    C  1  s      Val( 2s)     1.05291      -0.02307
   3    C  1  s      Ryd( 3s)     0.00072       1.61147
   4    C  1  s      Ryd( 4s)     0.00004       4.49179
   5    C  1  px     Val( 2p)     1.05841       0.14003
   6    C  1  px     Ryd( 3p)     0.00325       0.81731
   7    C  1  py     Val( 2p)     1.15406       0.13887
   8    C  1  py     Ryd( 3p)     0.00353       0.98467
   9    C  1  pz     Val( 2p)     1.18603       0.13470
  10    C  1  pz     Ryd( 3p)     0.00191       0.93057
  11    C  1  dxy    Ryd( 3d)     0.00049       2.35686
  12    C  1  dxz    Ryd( 3d)     0.00032       2.21991
  13    C  1  dyz    Ryd( 3d)     0.00034       2.19564
  14    C  1  dx2y2  Ryd( 3d)     0.00146       2.32823
  15    C  1  dz2    Ryd( 3d)     0.00166       2.41483

  16    H  2  s      Val( 1s)     0.81444       0.25631
  17    H  2  s      Ryd( 2s)     0.00265       0.83730

  18    H  3  s      Val( 1s)     0.80867       0.26229
  19    H  3  s      Ryd( 2s)     0.00230       0.86743

  20    C  4  s      Cor( 1s)     1.99903      -9.78611
  21    C  4  s      Val( 2s)     0.97742       0.04403
  22    C  4  s      Ryd( 3s)     0.00159       1.33022
  23    C  4  s      Ryd( 4s)     0.00005       4.54633
  24    C  4  px     Val( 2p)     1.18985       0.15457
  25    C  4  px     Ryd( 3p)     0.00604       0.86509
  26    C  4  py     Val( 2p)     1.09647       0.17995
  27    C  4  py     Ryd( 3p)     0.00570       0.85481
  28    C  4  pz     Val( 2p)     1.16135       0.18426
  29    C  4  pz     Ryd( 3p)     0.00383       1.07068
  30    C  4  dxy    Ryd( 3d)     0.00082       2.35783
  31    C  4  dxz    Ryd( 3d)     0.00040       2.26417
  32    C  4  dyz    Ryd( 3d)     0.00040       2.31832
  33    C  4  dx2y2  Ryd( 3d)     0.00074       2.45514
  34    C  4  dz2    Ryd( 3d)     0.00129       2.41155

  35    H  5  s      Val( 1s)     0.83397       0.27114
  36    H  5  s      Ryd( 2s)     0.00168       0.84398

  37    C  6  s      Cor( 1s)     1.99921      -9.83258
  38    C  6  s      Val( 2s)     1.05300       0.00025
  39    C  6  s      Ryd( 3s)     0.00084       1.33650
  40    C  6  s      Ryd( 4s)     0.00005       4.46365
  41    C  6  px     Val( 2p)     1.07288       0.13319
  42    C  6  px     Ryd( 3p)     0.00452       0.95971
  43    C  6  py     Val( 2p)     1.12454       0.16771
  44    C  6  py     Ryd( 3p)     0.00330       0.82007
  45    C  6  pz     Val( 2p)     1.18654       0.16359
  46    C  6  pz     Ryd( 3p)     0.00258       1.01237
  47    C  6  dxy    Ryd( 3d)     0.00103       2.24132
  48    C  6  dxz    Ryd( 3d)     0.00036       2.08810
  49    C  6  dyz    Ryd( 3d)     0.00091       2.39553
  50    C  6  dx2y2  Ryd( 3d)     0.00067       2.38600
  51    C  6  dz2    Ryd( 3d)     0.00134       2.32691

  52    H  7  s      Val( 1s)     0.82264       0.26651
  53    H  7  s      Ryd( 2s)     0.00159       0.80767

  54    C  8  s      Cor( 1s)     1.99931      -9.83759
  55    C  8  s      Val( 2s)     1.04989      -0.02302
  56    C  8  s      Ryd( 3s)     0.00173       1.58944
  57    C  8  s      Ryd( 4s)     0.00003       4.52173
  58    C  8  px     Val( 2p)     1.09262       0.14784
  59    C  8  px     Ryd( 3p)     0.00218       0.90042
  60    C  8  py     Val( 2p)     1.12935       0.14104
  61    C  8  py     Ryd( 3p)     0.00193       0.84277
  62    C  8  pz     Val( 2p)     1.18341       0.14318
  63    C  8  pz     Ryd( 3p)     0.00236       1.00522
  64    C  8  dxy    Ryd( 3d)     0.00146       2.28294
  65    C  8  dxz    Ryd( 3d)     0.00058       2.21809
  66    C  8  dyz    Ryd( 3d)     0.00064       2.20120
  67    C  8  dx2y2  Ryd( 3d)     0.00068       2.40371
  68    C  8  dz2    Ryd( 3d)     0.00113       2.37196

  69    H  9  s      Val( 1s)     0.81866       0.25925
  70    H  9  s      Ryd( 2s)     0.00248       0.85015

  71    C 10  s      Cor( 1s)     1.99934      -9.79598
  72    C 10  s      Val( 2s)     1.09402       0.00542
  73    C 10  s      Ryd( 3s)     0.00143       1.41111
  74    C 10  s      Ryd( 4s)     0.00002       4.48712
  75    C 10  px     Val( 2p)     1.43266       0.14576
  76    C 10  px     Ryd( 3p)     0.00898       0.92150
  77    C 10  py     Val( 2p)     1.04828       0.19809
  78    C 10  py     Ryd( 3p)     0.00432       0.81583
  79    C 10  pz     Val( 2p)     1.15706       0.20318
  80    C 10  pz     Ryd( 3p)     0.00307       1.03093
  81    C 10  dxy    Ryd( 3d)     0.00045       2.19353
  82    C 10  dxz    Ryd( 3d)     0.00084       2.17266
  83    C 10  dyz    Ryd( 3d)     0.00075       2.36378
  84    C 10  dx2y2  Ryd( 3d)     0.00080       2.41590
  85    C 10  dz2    Ryd( 3d)     0.00071       2.31388

  86    H 11  s      Val( 1s)     0.83617       0.29037
  87    H 11  s      Ryd( 2s)     0.00094       0.85451

  88    H 12  s      Val( 1s)     0.81075       0.26741
  89    H 12  s      Ryd( 2s)     0.00226       0.85839

  90    H 13  s      Val( 1s)     0.84873       0.27936
  91    H 13  s      Ryd( 2s)     0.00139       0.86367

  92    H 14  s      Val( 1s)     0.80812       0.28597
  93    H 14  s      Ryd( 2s)     0.00131       0.86230


 Summary of Natural Population Analysis:

                                     Natural Population
             Natural    ---------------------------------------------
  Atom No    Charge        Core      Valence    Rydberg      Total
 --------------------------------------------------------------------
    C  1   -0.46447      1.99932     4.45142    0.01373     6.46447
    H  2    0.18291      0.00000     0.81444    0.00265     0.81709
    H  3    0.18904      0.00000     0.80867    0.00230     0.81096
    C  4   -0.44498      1.99903     4.42509    0.02086     6.44498
    H  5    0.16435      0.00000     0.83397    0.00168     0.83565
    C  6   -0.45177      1.99921     4.43696    0.01561     6.45177
    H  7    0.17577      0.00000     0.82264    0.00159     0.82423
    C  8   -0.46731      1.99931     4.45528    0.01272     6.46731
    H  9    0.17886      0.00000     0.81866    0.00248     0.82114
    C 10   -0.75274      1.99934     4.73203    0.02137     6.75274
    H 11    0.16288      0.00000     0.83617    0.00094     0.83712
    H 12    0.18700      0.00000     0.81075    0.00226     0.81300
    H 13    0.14988      0.00000     0.84873    0.00139     0.85012
    H 14    0.19057      0.00000     0.80812    0.00131     0.80943
   gh 15    0.00000      0.00000     0.00000    0.00000     0.00000
   gh 16    0.00000      0.00000     0.00000    0.00000     0.00000
   gh 17    0.00000      0.00000     0.00000    0.00000     0.00000
   gh 18    0.00000      0.00000     0.00000    0.00000     0.00000
   gh 19    0.00000      0.00000     0.00000    0.00000     0.00000
   gh 20    0.00000      0.00000     0.00000    0.00000     0.00000
   gh 21    0.00000      0.00000     0.00000    0.00000     0.00000
   gh 22    0.00000      0.00000     0.00000    0.00000     0.00000
   gh 23    0.00000      0.00000     0.00000    0.00000     0.00000
   gh 24    0.00000      0.00000     0.00000    0.00000     0.00000
   gh 25    0.00000      0.00000     0.00000    0.00000     0.00000
   gh 26    0.00000      0.00000     0.00000    0.00000     0.00000
   gh 27    0.00000      0.00000     0.00000    0.00000     0.00000
   gh 28    0.00000      0.00000     0.00000    0.00000     0.00000
   gh 29    0.00000      0.00000     0.00000    0.00000     0.00000
   gh 30    0.00000      0.00000     0.00000    0.00000     0.00000
   gh 31    0.00000      0.00000     0.00000    0.00000     0.00000
 ====================================================================
 * Total * -1.00000      9.99620    29.90292    0.10087    40.00000

                                 Natural Population
 ---------------------------------------------------------
   Core                       9.99620 ( 99.9620% of   10)
   Valence                   29.90292 ( 99.6764% of   30)
   Natural Minimal Basis     39.89913 ( 99.7478% of   40)
   Natural Rydberg Basis      0.10087 (  0.2522% of   40)
 ---------------------------------------------------------

    Atom No         Natural Electron Configuration
 ----------------------------------------------------------------------------
      C  1      [core]2s( 1.05)2p( 3.40)3p( 0.01)
      H  2            1s( 0.81)
      H  3            1s( 0.81)
      C  4      [core]2s( 0.98)2p( 3.45)3p( 0.02)
      H  5            1s( 0.83)
      C  6      [core]2s( 1.05)2p( 3.38)3p( 0.01)
      H  7            1s( 0.82)
      C  8      [core]2s( 1.05)2p( 3.41)3p( 0.01)
      H  9            1s( 0.82)
      C 10      [core]2s( 1.09)2p( 3.64)3p( 0.02)
      H 11            1s( 0.84)
      H 12            1s( 0.81)
      H 13            1s( 0.85)
      H 14            1s( 0.81)


 NATURAL BOND ORBITAL ANALYSIS:

                            Occupancies       Lewis Structure    Low   High
         Max    Occ     -------------------  -----------------   occ   occ
  Cycle  Ctr   Thresh    Lewis   non-Lewis     CR  BD  nC  LP    (L)   (NL)
 ============================================================================
    1     2     1.90    39.01356   0.98644      5  14   0   1     1      2
    2     2     1.87    39.24154   0.75846      5  14   0   1     1      2
    3     2     1.70    39.24154   0.75846      5  14   0   1     1      2
    4     2     1.53    39.24154   0.75846      5  14   0   1     1      2
    5     2     1.50    39.24337   0.75663      5  14   0   1     0      2
 ----------------------------------------------------------------------------

 Structure accepted: No low occupancy Lewis orbitals

 -------------------------------------------------------
   Core                      9.99620 ( 99.962% of  10)
   Valence Lewis            29.24716 ( 97.491% of  30)
  ==================      =============================
   Total Lewis              39.24337 ( 98.108% of  40)
  -----------------------------------------------------
   Valence non-Lewis         0.69789 (  1.745% of  40)
   Rydberg non-Lewis         0.05874 (  0.147% of  40)
  ==================      =============================
   Total non-Lewis           0.75663 (  1.892% of  40)
 -------------------------------------------------------


     (Occupancy)   Bond orbital / Coefficients / Hybrids
 ------------------ Lewis ------------------------------------------------------
   1. (1.99932) CR ( 1) C  1            s(100.00%)
                                         1.0000  0.0000  0.0000  0.0000  0.0000
                                         0.0000  0.0000  0.0000  0.0000  0.0000
                                         0.0000  0.0000  0.0000  0.0000  0.0000
   2. (1.99903) CR ( 1) C  4            s(100.00%)
                                         1.0000  0.0000  0.0000  0.0000  0.0000
                                         0.0000  0.0000  0.0000  0.0000  0.0000
                                         0.0000  0.0000  0.0000  0.0000  0.0000
   3. (1.99921) CR ( 1) C  6            s(100.00%)
                                         1.0000  0.0000  0.0000  0.0000  0.0000
                                         0.0000  0.0000  0.0000  0.0000  0.0000
                                         0.0000  0.0000  0.0000  0.0000  0.0000
   4. (1.99931) CR ( 1) C  8            s(100.00%)
                                         1.0000  0.0000  0.0000  0.0000  0.0000
                                         0.0000  0.0000  0.0000  0.0000  0.0000
                                         0.0000  0.0000  0.0000  0.0000  0.0000
   5. (1.99934) CR ( 1) C 10            s(100.00%)
                                         1.0000  0.0000  0.0000  0.0000  0.0000
                                         0.0000  0.0000  0.0000  0.0000  0.0000
                                         0.0000  0.0000  0.0000  0.0000  0.0000
   6. (1.50486) LP ( 1) C 10            s( 12.11%)p 7.26( 87.87%)d 0.00(  0.02%)
                                         0.0000  0.3474 -0.0190 -0.0004  0.9025
                                        -0.0648  0.2101 -0.0096  0.1256 -0.0084
                                        -0.0076 -0.0035 -0.0012 -0.0103  0.0072
   7. (1.98864) BD ( 1) C  1- H  2
               ( 59.45%)   0.7710* C  1 s( 23.02%)p 3.34( 76.88%)d 0.00(  0.09%)
                                         0.0000  0.4798  0.0004 -0.0015 -0.0153
                                         0.0048 -0.8436  0.0024 -0.2381  0.0113
                                         0.0007 -0.0003  0.0121 -0.0257 -0.0118
               ( 40.55%)   0.6368* H  2 s(100.00%)
                                         1.0000  0.0026
   8. (1.98285) BD ( 1) C  1- H  3
               ( 59.82%)   0.7734* C  1 s( 22.06%)p 3.53( 77.85%)d 0.00(  0.09%)
                                         0.0000  0.4696 -0.0061 -0.0016 -0.0044
                                         0.0045  0.0178 -0.0165  0.8820  0.0009
                                         0.0006  0.0001  0.0008 -0.0008  0.0307
               ( 40.18%)   0.6339* H  3 s(100.00%)
                                         1.0000  0.0035
   9. (1.98215) BD ( 1) C  1- C  4
               ( 51.71%)   0.7191* C  1 s( 29.68%)p 2.37( 70.27%)d 0.00(  0.05%)
                                         0.0000  0.5447  0.0088  0.0022  0.6861
                                         0.0200  0.3802 -0.0182 -0.2944 -0.0049
                                         0.0142 -0.0103 -0.0050  0.0096 -0.0067
               ( 48.29%)   0.6949* C  4 s( 34.03%)p 1.94( 65.90%)d 0.00(  0.07%)
                                         0.0000  0.5834  0.0012  0.0016 -0.5053
                                        -0.0147 -0.5235 -0.0296  0.3585 -0.0002
                                         0.0170 -0.0163 -0.0028  0.0074 -0.0070
  10. (1.95723) BD ( 1) C  1- C  8
               ( 50.34%)   0.7095* C  1 s( 25.17%)p 2.97( 74.80%)d 0.00(  0.03%)
                                         0.0000  0.5017  0.0010  0.0010 -0.7268
                                        -0.0059  0.3768 -0.0172 -0.2784  0.0037
                                        -0.0114  0.0068 -0.0042  0.0096 -0.0065
               ( 49.66%)   0.7047* C  8 s( 23.29%)p 3.29( 76.67%)d 0.00(  0.04%)
                                         0.0000  0.4826  0.0011  0.0008  0.7434
                                        -0.0103 -0.3757 -0.0112  0.2697 -0.0013
                                        -0.0145  0.0080 -0.0054  0.0059 -0.0066
  11. (1.97827) BD ( 1) C  4- H  5
               ( 58.35%)   0.7639* C  4 s( 27.60%)p 2.62( 72.30%)d 0.00(  0.09%)
                                         0.0000  0.5253 -0.0117 -0.0026  0.2405
                                         0.0135 -0.1899 -0.0071 -0.7930 -0.0066
                                         0.0011 -0.0074  0.0067 -0.0023  0.0285
               ( 41.65%)   0.6454* H  5 s(100.00%)
                                         1.0000  0.0023
  12. (1.98879) BD ( 1) C  4- C  6
               ( 49.75%)   0.7054* C  4 s( 37.55%)p 1.66( 62.38%)d 0.00(  0.08%)
                                         0.0000  0.6125  0.0170  0.0010  0.1569
                                         0.0117  0.7200  0.0455  0.2803  0.0012
                                        -0.0001 -0.0055  0.0130 -0.0225 -0.0087
               ( 50.25%)   0.7088* C  6 s( 37.56%)p 1.66( 62.37%)d 0.00(  0.07%)
                                         0.0000  0.6128  0.0107  0.0024  0.1195
                                         0.0186 -0.7575 -0.0273 -0.1849 -0.0182
                                        -0.0046 -0.0046  0.0097 -0.0221 -0.0087
  13. (1.95480) BD ( 2) C  4- C  6
               ( 57.94%)   0.7612* C  4 s(  0.79%)p99.99( 99.17%)d 0.05(  0.04%)
                                         0.0000 -0.0885  0.0074 -0.0007 -0.8123
                                         0.0437  0.4091 -0.0164 -0.4026  0.0145
                                        -0.0177 -0.0026 -0.0059 -0.0019 -0.0075
               ( 42.06%)   0.6486* C  6 s(  4.24%)p22.56( 95.68%)d 0.02(  0.08%)
                                         0.0000  0.2057  0.0108  0.0020 -0.8917
                                         0.0371  0.1208 -0.0251 -0.3808 -0.0023
                                         0.0211  0.0007  0.0130 -0.0068  0.0110
  14. (1.99023) BD ( 1) C  6- H  7
               ( 58.94%)   0.7678* C  6 s( 28.18%)p 2.55( 71.72%)d 0.00(  0.10%)
                                         0.0000  0.5308 -0.0006 -0.0023  0.3947
                                        -0.0038  0.6003  0.0156 -0.4481  0.0025
                                         0.0194 -0.0161 -0.0177 -0.0066 -0.0029
               ( 41.06%)   0.6407* H  7 s(100.00%)
                                         1.0000  0.0015
  15. (1.98641) BD ( 1) C  6- H 14
               ( 59.73%)   0.7729* C  6 s( 29.90%)p 2.34( 69.99%)d 0.00(  0.11%)
                                         0.0000  0.5467 -0.0104 -0.0003 -0.1795
                                         0.0079  0.2213  0.0188  0.7863  0.0072
                                         0.0021 -0.0052  0.0122 -0.0052  0.0293
               ( 40.27%)   0.6346* H 14 s(100.00%)
                                         1.0000  0.0024
  16. (1.97933) BD ( 1) C  8- H  9
               ( 59.26%)   0.7698* C  8 s( 22.60%)p 3.42( 77.30%)d 0.00(  0.10%)
                                         0.0000  0.4754 -0.0055 -0.0012 -0.6603
                                        -0.0052 -0.3845  0.0056  0.4348 -0.0111
                                         0.0201 -0.0180 -0.0116  0.0083 -0.0044
               ( 40.74%)   0.6383* H  9 s(100.00%)
                                         1.0000  0.0040
  17. (1.99209) BD ( 1) C  8- C 10
               ( 53.15%)   0.7291* C  8 s( 31.94%)p 2.13( 68.01%)d 0.00(  0.04%)
                                         0.0000  0.5650  0.0165  0.0014  0.0052
                                        -0.0119  0.8167  0.0153  0.1126 -0.0002
                                        -0.0004 -0.0004  0.0041 -0.0186 -0.0089
               ( 46.85%)   0.6844* C 10 s( 34.14%)p 1.93( 65.79%)d 0.00(  0.07%)
                                         0.0000  0.5841  0.0145  0.0029 -0.0255
                                        -0.0111 -0.8038 -0.0416 -0.0961 -0.0095
                                         0.0065  0.0005  0.0047 -0.0235 -0.0086
  18. (1.98524) BD ( 1) C  8- H 12
               ( 59.57%)   0.7718* C  8 s( 22.15%)p 3.51( 77.76%)d 0.00(  0.10%)
                                         0.0000  0.4705 -0.0077 -0.0010 -0.1013
                                        -0.0121 -0.2073  0.0004 -0.8510  0.0038
                                         0.0029  0.0062  0.0132 -0.0016  0.0269
               ( 40.43%)   0.6358* H 12 s(100.00%)
                                         1.0000  0.0023
  19. (1.98861) BD ( 1) C 10- H 11
               ( 58.13%)   0.7624* C 10 s( 27.73%)p 2.60( 72.18%)d 0.00(  0.09%)
                                         0.0000  0.5266  0.0026 -0.0010 -0.2181
                                         0.0015  0.4687  0.0287 -0.6734 -0.0163
                                        -0.0106  0.0148 -0.0192 -0.0053  0.0141
               ( 41.87%)   0.6471* H 11 s(100.00%)
                                         1.0000  0.0001
  20. (1.98765) BD ( 1) C 10- H 13
               ( 57.55%)   0.7586* C 10 s( 25.93%)p 2.85( 73.98%)d 0.00(  0.09%)
                                         0.0000  0.5092  0.0017 -0.0012 -0.3645
                                        -0.0019  0.2935  0.0277  0.7208  0.0232
                                        -0.0083 -0.0220  0.0117  0.0020  0.0160
               ( 42.45%)   0.6515* H 13 s(100.00%)
                                         1.0000  0.0005
 ---------------- non-Lewis ----------------------------------------------------
  21. (0.01338) BD*( 1) C  1- H  2
               ( 40.55%)   0.6368* C  1 s( 23.02%)p 3.34( 76.88%)d 0.00(  0.09%)
                                         0.0000 -0.4798 -0.0004  0.0015  0.0153
                                        -0.0048  0.8436 -0.0024  0.2381 -0.0113
                                        -0.0007  0.0003 -0.0121  0.0257  0.0118
               ( 59.45%)  -0.7710* H  2 s(100.00%)
                                        -1.0000 -0.0026
  22. (0.01989) BD*( 1) C  1- H  3
               ( 40.18%)   0.6339* C  1 s( 22.06%)p 3.53( 77.85%)d 0.00(  0.09%)
                                         0.0000 -0.4696  0.0061  0.0016  0.0044
                                        -0.0045 -0.0178  0.0165 -0.8820 -0.0009
                                        -0.0006 -0.0001 -0.0008  0.0008 -0.0307
               ( 59.82%)  -0.7734* H  3 s(100.00%)
                                        -1.0000 -0.0035
  23. (0.01765) BD*( 1) C  1- C  4
               ( 48.29%)   0.6949* C  1 s( 29.68%)p 2.37( 70.27%)d 0.00(  0.05%)
                                         0.0000 -0.5447 -0.0088 -0.0022 -0.6861
                                        -0.0200 -0.3802  0.0182  0.2944  0.0049
                                        -0.0142  0.0103  0.0050 -0.0096  0.0067
               ( 51.71%)  -0.7191* C  4 s( 34.03%)p 1.94( 65.90%)d 0.00(  0.07%)
                                         0.0000 -0.5834 -0.0012 -0.0016  0.5053
                                         0.0147  0.5235  0.0296 -0.3585  0.0002
                                        -0.0170  0.0163  0.0028 -0.0074  0.0070
  24. (0.11145) BD*( 1) C  1- C  8
               ( 49.66%)   0.7047* C  1 s( 25.17%)p 2.97( 74.80%)d 0.00(  0.03%)
                                         0.0000  0.5017  0.0010  0.0010 -0.7268
                                        -0.0059  0.3768 -0.0172 -0.2784  0.0037
                                        -0.0114  0.0068 -0.0042  0.0096 -0.0065
               ( 50.34%)  -0.7095* C  8 s( 23.29%)p 3.29( 76.67%)d 0.00(  0.04%)
                                         0.0000  0.4826  0.0011  0.0008  0.7434
                                        -0.0103 -0.3757 -0.0112  0.2697 -0.0013
                                        -0.0145  0.0080 -0.0054  0.0059 -0.0066
  25. (0.01707) BD*( 1) C  4- H  5
               ( 41.65%)   0.6454* C  4 s( 27.60%)p 2.62( 72.30%)d 0.00(  0.09%)
                                         0.0000 -0.5253  0.0117  0.0026 -0.2405
                                        -0.0135  0.1899  0.0071  0.7930  0.0066
                                        -0.0011  0.0074 -0.0067  0.0023 -0.0285
               ( 58.35%)  -0.7639* H  5 s(100.00%)
                                        -1.0000 -0.0023
  26. (0.01192) BD*( 1) C  4- C  6
               ( 50.25%)   0.7088* C  4 s( 37.55%)p 1.66( 62.38%)d 0.00(  0.08%)
                                         0.0000  0.6125  0.0170  0.0010  0.1569
                                         0.0117  0.7200  0.0455  0.2803  0.0012
                                        -0.0001 -0.0055  0.0130 -0.0225 -0.0087
               ( 49.75%)  -0.7054* C  6 s( 37.56%)p 1.66( 62.37%)d 0.00(  0.07%)
                                         0.0000  0.6128  0.0107  0.0024  0.1195
                                         0.0186 -0.7575 -0.0273 -0.1849 -0.0182
                                        -0.0046 -0.0046  0.0097 -0.0221 -0.0087
  27. (0.42864) BD*( 2) C  4- C  6
               ( 42.06%)   0.6486* C  4 s(  0.79%)p99.99( 99.17%)d 0.05(  0.04%)
                                         0.0000  0.0885 -0.0074  0.0007  0.8123
                                        -0.0437 -0.4091  0.0164  0.4026 -0.0145
                                         0.0177  0.0026  0.0059  0.0019  0.0075
               ( 57.94%)  -0.7612* C  6 s(  4.24%)p22.56( 95.68%)d 0.02(  0.08%)
                                         0.0000 -0.2057 -0.0108 -0.0020  0.8917
                                        -0.0371 -0.1208  0.0251  0.3808  0.0023
                                        -0.0211 -0.0007 -0.0130  0.0068 -0.0110
  28. (0.00941) BD*( 1) C  6- H  7
               ( 41.06%)   0.6407* C  6 s( 28.18%)p 2.55( 71.72%)d 0.00(  0.10%)
                                         0.0000 -0.5308  0.0006  0.0023 -0.3947
                                         0.0038 -0.6003 -0.0156  0.4481 -0.0025
                                        -0.0194  0.0161  0.0177  0.0066  0.0029
               ( 58.94%)  -0.7678* H  7 s(100.00%)
                                        -1.0000 -0.0015
  29. (0.01377) BD*( 1) C  6- H 14
               ( 40.27%)   0.6346* C  6 s( 29.90%)p 2.34( 69.99%)d 0.00(  0.11%)
                                         0.0000 -0.5467  0.0104  0.0003  0.1795
                                        -0.0079 -0.2213 -0.0188 -0.7863 -0.0072
                                        -0.0021  0.0052 -0.0122  0.0052 -0.0293
               ( 59.73%)  -0.7729* H 14 s(100.00%)
                                        -1.0000 -0.0024
  30. (0.02078) BD*( 1) C  8- H  9
               ( 40.74%)   0.6383* C  8 s( 22.60%)p 3.42( 77.30%)d 0.00(  0.10%)
                                         0.0000 -0.4754  0.0055  0.0012  0.6603
                                         0.0052  0.3845 -0.0056 -0.4348  0.0111
                                        -0.0201  0.0180  0.0116 -0.0083  0.0044
               ( 59.26%)  -0.7698* H  9 s(100.00%)
                                        -1.0000 -0.0040
  31. (0.00534) BD*( 1) C  8- C 10
               ( 46.85%)   0.6844* C  8 s( 31.94%)p 2.13( 68.01%)d 0.00(  0.04%)
                                         0.0000 -0.5650 -0.0165 -0.0014 -0.0052
                                         0.0119 -0.8167 -0.0153 -0.1126  0.0002
                                         0.0004  0.0004 -0.0041  0.0186  0.0089
               ( 53.15%)  -0.7291* C 10 s( 34.14%)p 1.93( 65.79%)d 0.00(  0.07%)
                                         0.0000 -0.5841 -0.0145 -0.0029  0.0255
                                         0.0111  0.8038  0.0416  0.0961  0.0095
                                        -0.0065 -0.0005 -0.0047  0.0235  0.0086
  32. (0.01377) BD*( 1) C  8- H 12
               ( 40.43%)   0.6358* C  8 s( 22.15%)p 3.51( 77.76%)d 0.00(  0.10%)
                                         0.0000 -0.4705  0.0077  0.0010  0.1013
                                         0.0121  0.2073 -0.0004  0.8510 -0.0038
                                        -0.0029 -0.0062 -0.0132  0.0016 -0.0269
               ( 59.57%)  -0.7718* H 12 s(100.00%)
                                        -1.0000 -0.0023
  33. (0.00612) BD*( 1) C 10- H 11
               ( 41.87%)   0.6471* C 10 s( 27.73%)p 2.60( 72.18%)d 0.00(  0.09%)
                                         0.0000 -0.5266 -0.0026  0.0010  0.2181
                                        -0.0015 -0.4687 -0.0287  0.6734  0.0163
                                         0.0106 -0.0148  0.0192  0.0053 -0.0141
               ( 58.13%)  -0.7624* H 11 s(100.00%)
                                        -1.0000 -0.0001
  34. (0.00870) BD*( 1) C 10- H 13
               ( 42.45%)   0.6515* C 10 s( 25.93%)p 2.85( 73.98%)d 0.00(  0.09%)
                                         0.0000 -0.5092 -0.0017  0.0012  0.3645
                                         0.0019 -0.2935 -0.0277 -0.7208 -0.0232
                                         0.0083  0.0220 -0.0117 -0.0020 -0.0160
               ( 57.55%)  -0.7586* H 13 s(100.00%)
                                        -1.0000 -0.0005
  35. (0.00444) RY ( 1) C  1            s(  0.55%)p99.99( 90.65%)d15.99(  8.80%)
                                         0.0000  0.0107  0.0734  0.0002 -0.0053
                                         0.3770  0.0237  0.7400  0.0076  0.4648
                                         0.0569 -0.0019 -0.0231 -0.2838 -0.0607
  36. (0.00307) RY ( 2) C  1            s(  2.71%)p30.77( 83.31%)d 5.16( 13.98%)
                                         0.0000  0.0159  0.1600 -0.0350  0.0176
                                        -0.8234  0.0071  0.2593  0.0119  0.2957
                                        -0.0515  0.0594  0.1380  0.1520 -0.3024
  37. (0.00101) RY ( 3) C  1            s( 30.43%)p 1.93( 58.68%)d 0.36( 10.89%)
                                         0.0000  0.0111  0.5515  0.0028 -0.0039
                                        -0.1318  0.0043  0.3304  0.0017 -0.6784
                                        -0.0420  0.0155 -0.0663 -0.3050  0.0975
  38. (0.00042) RY ( 4) C  1            s( 45.93%)p 0.36( 16.41%)d 0.82( 37.66%)
                                         0.0000 -0.0105  0.6775  0.0146 -0.0131
                                         0.3339 -0.0125 -0.1926  0.0175  0.1219
                                         0.2036 -0.0574  0.1725  0.4186 -0.3561
  39. (0.00022) RY ( 5) C  1            s(  8.64%)p 2.04( 17.66%)d 8.53( 73.70%)
                                         0.0000 -0.0084  0.2510 -0.1529 -0.0055
                                        -0.1859  0.0026 -0.2347 -0.0147  0.2945
                                         0.6292  0.1673 -0.1327 -0.2763  0.4681
  40. (0.00018) RY ( 6) C  1            s(  2.81%)p 2.14(  6.03%)d32.39( 91.16%)
                                         0.0000 -0.0060  0.1523 -0.0700 -0.0057
                                        -0.0910  0.0027 -0.1429 -0.0017  0.1777
                                        -0.1819 -0.9049 -0.0846 -0.2073  0.0972
  41. (0.00007) RY ( 7) C  1            s( 16.29%)p 0.21(  3.47%)d 4.92( 80.23%)
  42. (0.00004) RY ( 8) C  1            s(  7.19%)p 2.72( 19.56%)d10.19( 73.25%)
  43. (0.00001) RY ( 9) C  1            s( 14.86%)p 0.01(  0.16%)d 5.72( 84.98%)
[...]
 -------------------------------------------------------------
                 Lewis   -3.29   -0.81    6.57    8.62    0.82
             non-Lewis    0.49    0.17    3.25    2.93    1.30
 -------------------------------------------------------------
                 Total   -2.80   -0.65    9.82   11.55    2.12
 -------------------------------------------------------------

 Cartesian XYZ to principal shielding axes for atom gh ( 31):

        1         2         3
 -------------------------------
  X  0.999366  0.035408 -0.003818
  Y -0.034540  0.989784  0.138325
  Z  0.008677 -0.138106  0.990379

 Summary of isotropic NMR chemical shielding
 Total Lewis (L) and non-Lewis (NL) contributions: (ppm)

        NBO           C  1    H  2    H  3    C  4    H  5    C  6    H  7
 ---------------    ------- ------- ------- ------- ------- ------- -------
   1.  C 1(cr)   L   203.02    0.77    0.26   -0.30   -0.08   -0.16   -0.07
                 NL    0.12   -0.12   -0.04    0.02    0.01    0.04    0.01
   2.  C 4(cr)   L    -0.17    0.03   -0.08  203.05    0.57   -0.49   -0.09
                 NL    0.03    0.00    0.02    0.08   -0.11    0.07    0.01
   3.  C 6(cr)   L    -0.19   -0.09   -0.12   -0.51   -0.13  203.13    0.78
                 NL    0.04    0.01    0.02    0.02    0.01    0.09   -0.13
   4.  C 8(cr)   L    -0.15   -0.01   -0.07   -0.12   -0.07   -0.10   -0.06
                 NL    0.02    0.00    0.01    0.02    0.01    0.02    0.01
   5.  C10(cr)   L    -0.10   -0.05   -0.07   -0.08   -0.05   -0.09   -0.04
                 NL    0.02    0.01    0.01    0.01    0.01    0.02    0.01
   6.  C10(lp)   L    -1.46    0.01   -0.11    0.77   -0.20   -6.55   -0.89
                 NL   -2.94   -0.21    0.58    1.01    1.38   16.07    0.91
   7.  C 1- H 2  L   -16.81   27.97    0.97   -0.91    0.04   -0.87    0.01
                 NL    0.49    0.03    0.13   -0.28   -0.06   -0.24   -0.11
   8.  C 1- H 3  L   -10.28    1.36   27.56    0.19    0.06   -0.42    0.02
                 NL    0.78    0.06   -0.05   -0.30   -0.18    0.48    0.04
   9.  C 1- C 4  L   -19.83   -0.15    0.70  -26.09   -0.22   -6.10    0.08
                 NL   -2.21    0.02   -0.05    1.44    0.09    5.64   -0.34
  10.  C 1- C 8  L   -12.99   -0.24    1.26    2.43    0.50    0.77    0.39
                 NL    0.11   -0.06    0.09   -0.61   -0.03   -0.22    0.01
  11.  C 4- H 5  L    -2.23   -0.08   -0.13  -22.01   28.10   -5.57   -0.13
                 NL    1.33    0.03   -0.06    3.30   -0.31    4.22    0.02
  12.  C 4- C 6  L    -3.08    0.05   -0.17  -34.50   -1.03  -40.45   -1.67
                 NL    2.51   -0.21   -0.01    0.13    0.21   -4.65   -0.02
  13.  C 4- C 6  L     2.40    0.72    1.11    2.20    3.53   -8.19    0.32
                 NL   -2.21   -0.22   -0.09    0.53   -0.11    1.69    0.22
  14.  C 6- H 7  L    -1.00    0.03   -0.13   -3.50   -0.11  -32.35   28.21
                 NL    0.33   -0.12    0.03    1.31   -0.09    0.67   -0.13
  15.  C 6- H14  L    -0.65   -0.03   -0.13   -3.80    0.07  -27.90    0.07
                 NL    0.28    0.05    0.09    3.58   -0.31    2.38   -0.04
  16.  C 8- H 9  L    -0.13    0.22    0.05   -0.34    0.05    0.08    0.05
                 NL   -0.35   -0.05   -0.01    0.79    0.07    0.29    0.02
  17.  C 8- C10  L     0.47   -0.07    0.24   -0.17    0.15    0.77    0.22
                 NL   -0.09   -0.12   -0.06   -0.12   -0.03   -0.23   -0.02
  18.  C 8- H12  L     0.69    0.21   -0.09   -0.20   -0.09    0.00   -0.03
                 NL   -0.77   -0.09   -0.04   -0.03    0.05    0.05    0.03
  19.  C10- H11  L    -0.25    0.10    0.12    0.07    0.03    0.46    0.00
                 NL    0.07   -0.07    0.02    0.02    0.03   -0.17    0.06
  20.  C10- H13  L     0.00    0.05    0.01    0.08    0.07    0.49    0.13
                 NL    0.26   -0.02    0.02    0.00    0.01   -0.10    0.02
 ---------------    ------- ------- ------- ------- ------- ------- -------
           Lewis     137.24   30.81   31.19  116.27   31.16   76.46   27.29
       non-Lewis      -2.20   -1.08    0.60   10.91    0.67   26.13    0.58
 ---------------    ------- ------- ------- ------- ------- ------- -------
           Total     135.04   29.73   31.79  127.18   31.83  102.59   27.86

        NBO           C  8    H  9    C 10    H 11    H 12    H 13    H 14
 ---------------    ------- ------- ------- ------- ------- ------- -------
   1.  C 1(cr)   L    -0.16   -0.01   -0.12   -0.07   -0.07   -0.07   -0.10
                 NL    0.01    0.00    0.02    0.01    0.01    0.01    0.02
   2.  C 4(cr)   L    -0.13   -0.06   -0.13   -0.08   -0.07   -0.08   -0.16
                 NL    0.02    0.01    0.02    0.01    0.01    0.01    0.02
   3.  C 6(cr)   L    -0.13   -0.07   -0.11   -0.06   -0.09   -0.05    0.31
                 NL    0.02    0.01    0.02    0.01    0.01    0.01   -0.04
   4.  C 8(cr)   L   203.00    0.68   -0.25   -0.06    0.33   -0.06   -0.08
                 NL    0.12   -0.12    0.01    0.01   -0.06    0.01    0.02
   5.  C10(cr)   L    -0.24   -0.04  202.91    0.40   -0.07    0.41   -0.06
                 NL   -0.01    0.01    0.13   -0.07    0.01   -0.07    0.01
   6.  C10(lp)   L     3.18    0.18    8.30    3.69    0.74    3.98   -0.93
                 NL   -2.73   -0.35   -1.11   -0.26    0.12   -0.20    0.00
   7.  C 1- H 2  L    -0.10    0.24   -0.54   -0.03    0.00   -0.05   -0.10
                 NL   -0.57   -0.06   -0.16   -0.02   -0.05    0.00    0.00
   8.  C 1- H 3  L     0.48    0.15   -0.03    0.01   -0.10   -0.05   -0.07
                 NL   -0.57   -0.10   -0.02    0.04   -0.05    0.03    0.06
   9.  C 1- C 4  L     1.66    0.14    0.09    0.18    0.59    0.17   -0.24
                 NL   -0.51   -0.12   -0.31    0.00   -0.08   -0.02    0.12
  10.  C 1- C 8  L   -10.08    0.46    3.66    0.43    1.28    0.50    0.60
                 NL    0.63   -0.05   -1.48    0.09    0.04   -0.04    0.08
  11.  C 4- H 5  L    -0.18   -0.04   -0.09   -0.05   -0.07   -0.03   -0.09
                 NL    0.32    0.09    0.20    0.10    0.14    0.08   -0.17
  12.  C 4- C 6  L     0.46    0.22    1.30    0.49    0.43    0.33   -0.71
                 NL    0.10    0.00   -0.40   -0.02    0.00   -0.02   -0.16
  13.  C 4- C 6  L    -1.75    0.37   -2.14   -0.45    0.25   -0.15    2.07
                 NL    0.13   -0.09    1.46    0.11    0.12    0.06    0.21
  14.  C 6- H 7  L    -0.03   -0.02    0.49    0.01   -0.02    0.03   -0.34
                 NL    0.08    0.04   -0.30    0.06    0.05    0.05    0.18
  15.  C 6- H14  L     0.07   -0.04    0.04    0.05    0.04   -0.23   27.58
                 NL    0.03    0.04    0.11    0.06    0.05    0.06   -0.18
  16.  C 8- H 9  L    -6.72   27.28   -0.27    0.15    1.56    0.02    0.09
                 NL    0.39    0.02   -1.21   -0.16    0.15   -0.08    0.06
  17.  C 8- C10  L   -20.57    0.00  -17.31    0.20    0.26    0.26    0.33
                 NL   -0.93    0.18   -2.00   -0.01    0.11   -0.06   -0.04
  18.  C 8- H12  L    -9.21    1.58   -0.28   -0.05   27.67    0.04    0.01
                 NL    0.82    0.09   -0.27   -0.14   -0.07   -0.15    0.03
  19.  C10- H11  L    -0.80    0.40   -7.86   26.97    0.09    1.49    0.17
                 NL   -0.31   -0.25   -0.38    0.05   -0.16   -0.03    0.02
  20.  C10- H13  L    -0.32    0.12  -12.46    1.15    0.12   27.46    0.04
                 NL   -0.82   -0.18   -0.69    0.00   -0.26   -0.02    0.06
 ---------------    ------- ------- ------- ------- ------- ------- -------
           Lewis     158.42   31.53  175.22   32.89   32.86   33.92   28.31
       non-Lewis      -3.78   -0.84   -6.36   -0.15    0.10   -0.35    0.31
 ---------------    ------- ------- ------- ------- ------- ------- -------
           Total     154.64   30.69  168.86   32.75   32.96   33.56   28.62

        NBO          gh 15   gh 16   gh 17   gh 18   gh 19   gh 20   gh 21
 ---------------    ------- ------- ------- ------- ------- ------- -------
   1.  C 1(cr)   L    -0.09   -0.12   -0.15   -0.19   -0.25   -0.34   -0.44
                 NL    0.02    0.02    0.03    0.04    0.05    0.06    0.08
   2.  C 4(cr)   L    -0.08   -0.11   -0.17   -0.24   -0.33   -0.45   -0.55
                 NL    0.02    0.02    0.03    0.05    0.07    0.10    0.12
   3.  C 6(cr)   L    -0.11   -0.14   -0.17   -0.21   -0.27   -0.33   -0.39
                 NL    0.02    0.02    0.03    0.03    0.04    0.05    0.06
   4.  C 8(cr)   L    -0.08   -0.11   -0.15   -0.20   -0.26   -0.34   -0.41
                 NL    0.02    0.02    0.03    0.04    0.05    0.07    0.08
   5.  C10(cr)   L    -0.07   -0.09   -0.11   -0.14   -0.17   -0.20   -0.24
                 NL    0.01    0.02    0.02    0.03    0.03    0.04    0.04
   6.  C10(lp)   L     0.29    0.32    0.29    0.14   -0.20   -0.79   -1.58
                 NL    0.54    0.64    0.73    0.77    0.73    0.61    0.52
   7.  C 1- H 2  L    -0.01    0.00    0.01    0.03    0.07    0.09    0.07
                 NL    0.02    0.03    0.05    0.06    0.08    0.10    0.10
   8.  C 1- H 3  L    -0.03   -0.04   -0.04   -0.01    0.07    0.23    0.50
                 NL    0.00    0.01    0.01    0.02    0.06    0.13    0.23
   9.  C 1- C 4  L     0.49    0.65    0.85    1.10    1.37    1.62    1.80
                 NL    0.02    0.03    0.04    0.05    0.06    0.07    0.11
  10.  C 1- C 8  L     0.53    0.68    0.89    1.17    1.55    2.03    2.62
                 NL    0.12    0.16    0.21    0.30    0.42    0.59    0.80
  11.  C 4- H 5  L    -0.10   -0.04    0.04    0.13    0.22    0.31    0.40
                 NL    0.14    0.23    0.34    0.49    0.65    0.79    0.88
  12.  C 4- C 6  L     0.64    0.88    1.20    1.61    2.09    2.52    2.70
                 NL    0.05    0.06    0.08    0.09    0.09    0.08    0.08
  13.  C 4- C 6  L     0.11    0.17    0.31    0.52    0.80    1.08    1.27
                 NL    0.06    0.09    0.13    0.15    0.14    0.12    0.15
  14.  C 6- H 7  L    -0.07   -0.08   -0.08   -0.07   -0.04   -0.01    0.01
                 NL    0.03    0.05    0.06    0.09    0.11    0.14    0.15
  15.  C 6- H14  L     0.08    0.10    0.12    0.15    0.19    0.22    0.21
                 NL    0.03    0.04    0.05    0.07    0.11    0.16    0.23
  16.  C 8- H 9  L     0.02    0.01    0.00    0.00    0.01    0.05    0.12
                 NL    0.09    0.11    0.12    0.14    0.15    0.17    0.20
  17.  C 8- C10  L     0.13    0.19    0.28    0.41    0.55    0.67    0.66
                 NL    0.00    0.00    0.00   -0.01   -0.04   -0.08   -0.10
  18.  C 8- H12  L    -0.26   -0.24   -0.19   -0.11    0.01    0.18    0.40
                 NL    0.05    0.07    0.10    0.14    0.18    0.24    0.29
  19.  C10- H11  L    -0.07   -0.05   -0.02    0.04    0.13    0.24    0.35
                 NL    0.01    0.01    0.02    0.03    0.05    0.07    0.08
  20.  C10- H13  L     0.09    0.09    0.10    0.12    0.14    0.18    0.24
                 NL    0.01    0.01    0.01    0.02    0.04    0.07    0.10
 ---------------    ------- ------- ------- ------- ------- ------- -------
           Lewis       1.39    2.07    3.04    4.28    5.68    6.97    7.75
       non-Lewis       1.25    1.64    2.09    2.57    3.06    3.58    4.21
 ---------------    ------- ------- ------- ------- ------- ------- -------
           Total       2.64    3.71    5.12    6.85    8.74   10.55   11.96

        NBO          gh 22   gh 23   gh 24   gh 25   gh 26   gh 27   gh 28
 ---------------    ------- ------- ------- ------- ------- ------- -------
   1.  C 1(cr)   L    -0.55   -0.64   -0.66   -0.60   -0.47   -0.34   -0.24
                 NL    0.10    0.12    0.13    0.11    0.09    0.06    0.04
   2.  C 4(cr)   L    -0.61   -0.60   -0.53   -0.44   -0.35   -0.27   -0.21
                 NL    0.13    0.13    0.11    0.09    0.07    0.05    0.04
   3.  C 6(cr)   L    -0.44   -0.46   -0.45   -0.41   -0.34   -0.27   -0.21
                 NL    0.07    0.08    0.08    0.07    0.06    0.05    0.04
   4.  C 8(cr)   L    -0.46   -0.46   -0.42   -0.35   -0.28   -0.22   -0.17
                 NL    0.09    0.10    0.09    0.07    0.06    0.04    0.03
   5.  C10(cr)   L    -0.26   -0.27   -0.27   -0.24   -0.20   -0.17   -0.13
                 NL    0.05    0.05    0.05    0.05    0.04    0.03    0.03
   6.  C10(lp)   L    -2.31   -2.64   -2.41   -1.80   -1.14   -0.63   -0.32
                 NL    0.62    0.98    1.41    1.66    1.62    1.39    1.12
   7.  C 1- H 2  L    -0.02   -0.17   -0.30   -0.34   -0.31   -0.24   -0.17
                 NL    0.07    0.03    0.00   -0.01    0.03    0.07    0.09
   8.  C 1- H 3  L     0.77    0.88    0.77    0.61    0.56    0.58    0.54
                 NL    0.35    0.45    0.50    0.49    0.41    0.31    0.21
   9.  C 1- C 4  L     1.86    1.81    1.63    1.33    1.00    0.70    0.48
                 NL    0.16    0.19    0.17    0.13    0.09    0.07    0.05
  10.  C 1- C 8  L     3.26    3.75    3.81    3.38    2.69    2.00    1.44
                 NL    0.94    0.93    0.80    0.65    0.52    0.42    0.32
  11.  C 4- H 5  L     0.43    0.34    0.14   -0.07   -0.18   -0.20   -0.17
                 NL    0.87    0.78    0.61    0.43    0.26    0.15    0.09
  12.  C 4- C 6  L     2.48    1.88    1.18    0.61    0.25    0.05   -0.05
                 NL    0.10    0.13    0.13    0.09    0.04    0.00    0.00
  13.  C 4- C 6  L     1.42    1.66    2.03    2.33    2.37    2.15    1.81
                 NL    0.26    0.39    0.46    0.45    0.40    0.34    0.28
  14.  C 6- H 7  L     0.01   -0.04   -0.09   -0.14   -0.18   -0.19   -0.20
                 NL    0.14    0.11    0.07    0.05    0.05    0.06    0.08
  15.  C 6- H14  L     0.13   -0.01   -0.16   -0.25   -0.28   -0.28   -0.29
                 NL    0.31    0.37    0.39    0.36    0.30    0.23    0.19
  16.  C 8- H 9  L     0.24    0.36    0.46    0.47    0.40    0.30    0.21
                 NL    0.24    0.27    0.27    0.25    0.21    0.17    0.13
  17.  C 8- C10  L     0.52    0.30    0.16    0.15    0.20    0.24    0.24
                 NL   -0.10   -0.06   -0.04   -0.05   -0.06   -0.06   -0.05
  18.  C 8- H12  L     0.60    0.68    0.59    0.37    0.15    0.01   -0.05
                 NL    0.32    0.30    0.25    0.17    0.09    0.04    0.01
  19.  C10- H11  L     0.42    0.42    0.38    0.33    0.27    0.22    0.19
                 NL    0.09    0.10    0.10    0.09    0.08    0.08    0.07
  20.  C10- H13  L     0.30    0.35    0.37    0.33    0.24    0.14    0.05
                 NL    0.13    0.14    0.14    0.13    0.11    0.09    0.07
 ---------------    ------- ------- ------- ------- ------- ------- -------
           Lewis       7.78    7.16    6.22    5.28    4.41    3.57    2.76
       non-Lewis       4.95    5.58    5.73    5.28    4.46    3.59    2.84
 ---------------    ------- ------- ------- ------- ------- ------- -------
           Total      12.73   12.73   11.95   10.56    8.87    7.16    5.60

        NBO          gh 29   gh 30   gh 31
 ---------------    ------- ------- -------
   1.  C 1(cr)   L    -0.16   -0.11   -0.08
                 NL    0.03    0.02    0.01
   2.  C 4(cr)   L    -0.17   -0.13   -0.11
                 NL    0.03    0.03    0.02
   3.  C 6(cr)   L    -0.16   -0.12   -0.09
                 NL    0.03    0.02    0.02
   4.  C 8(cr)   L    -0.13   -0.10   -0.08
                 NL    0.03    0.02    0.02
   5.  C10(cr)   L    -0.11   -0.08   -0.07
                 NL    0.02    0.02    0.01
   6.  C10(lp)   L    -0.14   -0.04    0.00
                 NL    0.88    0.69    0.54
   7.  C 1- H 2  L    -0.10   -0.06   -0.03
                 NL    0.10    0.09    0.07
   8.  C 1- H 3  L     0.40    0.20   -0.01
                 NL    0.13    0.07    0.03
   9.  C 1- C 4  L     0.32    0.20    0.13
                 NL    0.04    0.03    0.02
  10.  C 1- C 8  L     1.04    0.75    0.56
                 NL    0.24    0.18    0.13
  11.  C 4- H 5  L    -0.12   -0.08   -0.06
                 NL    0.06    0.04    0.03
  12.  C 4- C 6  L    -0.08   -0.09   -0.08
                 NL    0.00    0.00   -0.01
  13.  C 4- C 6  L     1.47    1.18    0.94
                 NL    0.22    0.18    0.14
  14.  C 6- H 7  L    -0.19   -0.17   -0.15
                 NL    0.09    0.09    0.08
  15.  C 6- H14  L    -0.30   -0.31   -0.30
                 NL    0.15    0.11    0.08
  16.  C 8- H 9  L     0.14    0.09    0.06
                 NL    0.10    0.07    0.06
  17.  C 8- C10  L     0.22    0.19    0.17
                 NL   -0.03   -0.02   -0.02
  18.  C 8- H12  L    -0.06   -0.05   -0.04
                 NL    0.00    0.00    0.00
  19.  C10- H11  L     0.16    0.15    0.14
                 NL    0.06    0.05    0.04
  20.  C10- H13  L    -0.02   -0.07   -0.10
                 NL    0.05    0.04    0.03
 ---------------    ------- ------- -------
           Lewis       2.01    1.34    0.82
       non-Lewis       2.22    1.71    1.30
 ---------------    ------- ------- -------
           Total       4.22    3.05    2.12

 Maximum scratch memory used by NBO was 422816 words
 Maximum scratch memory used by G09NBO was 1683482 words

 Read Unf file /home/alphaomega/rpaton/Gau-1935.EUF:
 Label Gaussian matrix elements                                         IVers= 1 NLab= 2 Version=ES64L-G09RevD.01
 Title Cyclopentene_ringclose_TS_mod_opt                               
 NAtoms=    31 NBasis=    93 NBsUse=    93 ICharg=    -1 Multip=     1 NE=    40 Len12L=8 Len4L=8
 Label GAUSSIAN SCALARS                                                 NI= 1 NR= 1 NTot=       1 LenBuf=    2000 N=    1000       1       1       1       1
 Label NPA CHARGES                                                      NI= 0 NR= 1 NTot=      31 LenBuf=    4000 N=      31       0       0       0       0
 Recovered energy= -195.818260403     dipole=      0.000000000000      0.000000000000      0.000000000000
 1\1\GINC-ALPHAOMEGA\SP\RB3LYP\6-31G(d)\C5H9(1-)\RPATON\18-Apr-2014\0\\
 # Pop=nbo6read b3lyp/6-31G(d) nmr=giao\\Cyclopentene_ringclose_TS_mod_
 opt\\-1,1\C,0,0.144638,-1.174463,0.300652\H,0,0.12723,-2.234376,0.0038
 53\H,0,0.136855,-1.139809,1.400405\C,0,1.277576,-0.398949,-0.259326\H,
 0,1.527024,-0.606739,-1.303647\C,0,1.276494,0.922225,0.137032\H,0,1.77
 5156,1.694824,-0.450285\C,0,-1.220387,-0.44185,-0.180895\H,0,-2.034255
 ,-0.950706,0.361708\C,0,-1.186106,1.038289,0.000218\H,0,-1.434283,1.65
 384,-0.866301\H,0,-1.343292,-0.70718,-1.241497\H,0,-1.596794,1.428856,
 0.938139\H,0,1.089074,1.189777,1.171535\Bq,0,0.092729369,-0.0327167109
 ,-2.0000514169\Bq,0,0.0884435729,-0.029995822,-1.7501029648\Bq,0,0.084
 1577767,-0.0272749332,-1.5001545127\Bq,0,0.0798719806,-0.0245540443,-1
 .2502060606\Bq,0,0.0755861845,-0.0218331554,-1.0002576085\Bq,0,0.07130
 03884,-0.0191122666,-0.7503091563\Bq,0,0.0670145922,-0.0163913777,-0.5
 003607042\Bq,0,0.0627287961,-0.0136704889,-0.2504122521\Bq,0,0.058443,
 -0.0109496,-0.0004638\Bq,0,0.0541572039,-0.0082287111,0.2494846521\Bq,
 0,0.0498714078,-0.0055078223,0.4994331042\Bq,0,0.0455856116,-0.0027869
 334,0.7493815563\Bq,0,0.0412998155,-0.0000660446,0.9993300085\Bq,0,0.0
 370140194,0.0026548443,1.2492784606\Bq,0,0.0327282233,0.0053757332,1.4
 992269127\Bq,0,0.0284424271,0.008096622,1.7491753648\Bq,0,0.024156631,
 0.0108175109,1.9991238169\\Version=ES64L-G09RevD.01\HF=-195.8182604\RM
 SD=2.227e-09\Dipole=-0.0605344,-0.4772377,0.0229829\Quadrupole=-4.1018
 885,-0.3187091,4.4205975,2.3516922,-0.3825,0.1378091\PG=C01 [X(C5H9)]\
 \@


 SOME PHYSICISTS WOULD PREFER TO COME BACK TO THE IDEA OF AN OBJECTIVE
 REAL WORLD WHOSE SMALLEST PARTS EXIST OBJECTIVELY IN THE SAME SENSE AS
 STONES OR TREES EXIST INDEPENDENTLY OF WHETHER WE OBSERVE THEM.
 THIS, HOWEVER, IS IMPOSSIBLE.  -- WERNER HEISENBERG
 Job cpu time:       0 days  0 hours  5 minutes 13.8 seconds.
 File lengths (MBytes):  RWF=     19 Int=      0 D2E=      0 Chk=      2 Scr=      1
 Normal termination of Gaussian 09 at Fri Apr 18 00:58:02 2014.
