 Entering Gaussian System, Link 0=g09
 Initial command:
 /usr/local/gaussian/g09/l1.exe "/home/alphaomega/rpaton/Gau-2327.inp" -scrdir="/home/alphaomega/rpaton/"
 Entering Link 1 = /usr/local/gaussian/g09/l1.exe PID=      2328.
  
 Copyright (c) 1988,1990,1992,1993,1995,1998,2003,2009,2013,
            Gaussian, Inc.  All Rights Reserved.
  
 This is part of the Gaussian(R) 09 program.  It is based on
 the Gaussian(R) 03 system (copyright 2003, Gaussian, Inc.),
 the Gaussian(R) 98 system (copyright 1998, Gaussian, Inc.),
 the Gaussian(R) 94 system (copyright 1995, Gaussian, Inc.),
 the Gaussian 92(TM) system (copyright 1992, Gaussian, Inc.),
 the Gaussian 90(TM) system (copyright 1990, Gaussian, Inc.),
 the Gaussian 88(TM) system (copyright 1988, Gaussian, Inc.),
 the Gaussian 86(TM) system (copyright 1986, Carnegie Mellon
 University), and the Gaussian 82(TM) system (copyright 1983,
 Carnegie Mellon University). Gaussian is a federally registered
 trademark of Gaussian, Inc.
  
 This software contains proprietary and confidential information,
 including trade secrets, belonging to Gaussian, Inc.
  
 This software is provided under written license and may be
 used, copied, transmitted, or stored only in accord with that
 written license.
  
 The following legend is applicable only to US Government
 contracts under FAR:
  
                    RESTRICTED RIGHTS LEGEND
  
 Use, reproduction and disclosure by the US Government is
 subject to restrictions as set forth in subparagraphs (a)
 and (c) of the Commercial Computer Software - Restricted
 Rights clause in FAR 52.227-19.
  
 Gaussian, Inc.
 340 Quinnipiac St., Bldg. 40, Wallingford CT 06492
  
  
 ---------------------------------------------------------------
 Warning -- This program may not be used in any manner that
 competes with the business of Gaussian, Inc. or will provide
 assistance to any competitor of Gaussian, Inc.  The licensee
 of this program is prohibited from giving any competitor of
 Gaussian, Inc. access to this program.  By using this program,
 the user acknowledges that Gaussian, Inc. is engaged in the
 business of creating and licensing software in the field of
 computational chemistry and represents and warrants to the
 licensee that it is not a competitor of Gaussian, Inc. and that
 it will not use this program in any manner prohibited above.
 ---------------------------------------------------------------
  

 Cite this work as:
 Gaussian 09, Revision D.01,
 M. J. Frisch, G. W. Trucks, H. B. Schlegel, G. E. Scuseria, 
 M. A. Robb, J. R. Cheeseman, G. Scalmani, V. Barone, B. Mennucci, 
 G. A. Petersson, H. Nakatsuji, M. Caricato, X. Li, H. P. Hratchian, 
 A. F. Izmaylov, J. Bloino, G. Zheng, J. L. Sonnenberg, M. Hada, 
 M. Ehara, K. Toyota, R. Fukuda, J. Hasegawa, M. Ishida, T. Nakajima, 
 Y. Honda, O. Kitao, H. Nakai, T. Vreven, J. A. Montgomery, Jr., 
 J. E. Peralta, F. Ogliaro, M. Bearpark, J. J. Heyd, E. Brothers, 
 K. N. Kudin, V. N. Staroverov, T. Keith, R. Kobayashi, J. Normand, 
 K. Raghavachari, A. Rendell, J. C. Burant, S. S. Iyengar, J. Tomasi, 
 M. Cossi, N. Rega, J. M. Millam, M. Klene, J. E. Knox, J. B. Cross, 
 V. Bakken, C. Adamo, J. Jaramillo, R. Gomperts, R. E. Stratmann, 
 O. Yazyev, A. J. Austin, R. Cammi, C. Pomelli, J. W. Ochterski, 
 R. L. Martin, K. Morokuma, V. G. Zakrzewski, G. A. Voth, 
 P. Salvador, J. J. Dannenberg, S. Dapprich, A. D. Daniels, 
 O. Farkas, J. B. Foresman, J. V. Ortiz, J. Cioslowski, 
 and D. J. Fox, Gaussian, Inc., Wallingford CT, 2013.
 
 ******************************************
 Gaussian 09:  ES64L-G09RevD.01 24-Apr-2013
                18-Apr-2014 
 ******************************************
 %chk=Diketone_enolization_TS_mod3_opt_NICSplus.chk
 %nprocshared=16
 Will use up to   16 processors via shared memory.
 --------------------------------------
 # Pop=nbo6read b3lyp/6-31G(d) nmr=giao
 --------------------------------------
 1/38=1,163=2/1;
 2/12=2,17=6,18=5,40=1/2;
 3/5=1,6=6,7=1,11=2,16=1,25=1,30=1,74=-5/1,2,8,3;
 4//1;
 5/5=2,38=5/2;
 8/6=1,10=90,11=11/1;
 10/13=100,45=16/2;
 6/7=2,8=2,9=2,10=2,28=1,40=2,64=1,113=1,114=1,124=2103,125=11000/1,12;
 99/9=1/99;
 ----------------------------
 Diketone_enolization_TS_mod3
 ----------------------------
 Symbolic Z-matrix:
 Charge =  0 Multiplicity = 1
 C                     1.20037  -0.058    -0.0019 
 C                     0.       -0.78558  -0.00001 
 C                    -1.20036  -0.058     0.00188 
 C                     2.5463   -0.71609   0.0003 
 H                     2.46754  -1.80332  -0.04905 
 H                     3.12754  -0.35163  -0.85116 
 H                     3.08345  -0.43182   0.90993 
 C                    -2.5463   -0.71609  -0.00028 
 H                    -3.12744  -0.35182   0.85132 
 H                    -3.08356  -0.43163  -0.90979 
 H                    -2.46753  -1.80333   0.04883 
 H                     0.       -1.86713  -0.00003 
 O                     1.17589   1.22388  -0.00142 
 O                    -1.17589   1.22388   0.00142 
 H                    -0.00001   1.46112  0. 
 Bq                   -0.00558   0.50124  -4. 
 Bq                   -0.00523   0.50124  -3.75 
 Bq                   -0.00488   0.50124  -3.5 
 Bq                   -0.00454   0.50124  -3.25 
 Bq                   -0.00419   0.50124  -3. 
 Bq                   -0.00384   0.50123  -2.75 
 Bq                   -0.00349   0.50123  -2.5 
 Bq                   -0.00314   0.50123  -2.25 
 Bq                   -0.00279   0.50123  -2. 
 Bq                   -0.00244   0.50123  -1.75 
 Bq                   -0.00209   0.50123  -1.5 
 Bq                   -0.00174   0.50122  -1.25 
 Bq                   -0.0014    0.50122  -1. 
 Bq                   -0.00105   0.50122  -0.75 
 Bq                   -0.0007    0.50122  -0.5 
 Bq                   -0.00035   0.50122  -0.25 
 Bq                   0.         0.50122  0. 
 Bq                    0.00035   0.50122   0.25 
 Bq                    0.0007    0.50121   0.5 
 Bq                    0.00105   0.50121   0.74999 
 Bq                    0.00139   0.50121   0.99999 
 Bq                    0.00174   0.50121   1.24999 
 Bq                    0.00209   0.50121   1.49999 
 Bq                    0.00244   0.50121   1.74999 
 Bq                    0.00279   0.5012    1.99999 
 Bq                    0.00314   0.5012    2.24999 
 Bq                    0.00349   0.5012    2.49999 
 Bq                    0.00384   0.5012    2.74999 
 Bq                    0.00418   0.5012    2.99999 
 Bq                    0.00453   0.5012    3.24999 
 Bq                    0.00488   0.5012    3.49999 
 Bq                    0.00523   0.50119   3.74999 
 Bq                    0.00558   0.50119   3.99999 
 
                          Input orientation:                          
 ---------------------------------------------------------------------
 Center     Atomic      Atomic             Coordinates (Angstroms)
 Number     Number       Type             X           Y           Z
 ---------------------------------------------------------------------
      1          6           0        1.200366   -0.057999   -0.001896
      2          6           0        0.000001   -0.785583   -0.000014
      3          6           0       -1.200363   -0.058004    0.001883
      4          6           0        2.546296   -0.716087    0.000297
      5          1           0        2.467540   -1.803322   -0.049049
      6          1           0        3.127542   -0.351634   -0.851156
      7          1           0        3.083446   -0.431823    0.909931
      8          6           0       -2.546295   -0.716087   -0.000282
      9          1           0       -3.127438   -0.351816    0.851322
     10          1           0       -3.083560   -0.431629   -0.909786
     11          1           0       -2.467528   -1.803331    0.048833
     12          1           0        0.000002   -1.867131   -0.000026
     13          8           0        1.175890    1.223884   -0.001420
     14          8           0       -1.175893    1.223882    0.001422
     15          1           0       -0.000008    1.461121   -0.000001
     16          0           0       -0.005581    0.501241   -4.000000
     17          0           0       -0.005233    0.501240   -3.750001
     18          0           0       -0.004884    0.501238   -3.500001
     19          0           0       -0.004535    0.501237   -3.250001
     20          0           0       -0.004186    0.501235   -3.000001
     21          0           0       -0.003838    0.501234   -2.750002
     22          0           0       -0.003489    0.501232   -2.500002
     23          0           0       -0.003140    0.501230   -2.250002
     24          0           0       -0.002791    0.501229   -2.000002
     25          0           0       -0.002442    0.501227   -1.750003
     26          0           0       -0.002094    0.501226   -1.500003
     27          0           0       -0.001745    0.501224   -1.250003
     28          0           0       -0.001396    0.501223   -1.000003
     29          0           0       -0.001047    0.501221   -0.750004
     30          0           0       -0.000699    0.501220   -0.500004
     31          0           0       -0.000350    0.501218   -0.250004
     32          0           0       -0.000001    0.501217   -0.000004
     33          0           0        0.000348    0.501215    0.249995
     34          0           0        0.000696    0.501214    0.499995
     35          0           0        0.001045    0.501212    0.749995
     36          0           0        0.001394    0.501211    0.999995
     37          0           0        0.001743    0.501209    1.249994
     38          0           0        0.002091    0.501208    1.499994
     39          0           0        0.002440    0.501206    1.749994
     40          0           0        0.002789    0.501205    1.999994
     41          0           0        0.003138    0.501203    2.249993
     42          0           0        0.003486    0.501202    2.499993
     43          0           0        0.003835    0.501200    2.749993
     44          0           0        0.004184    0.501199    2.999993
     45          0           0        0.004533    0.501197    3.249993
     46          0           0        0.004881    0.501196    3.499992
     47          0           0        0.005230    0.501194    3.749992
     48          0           0        0.005579    0.501193    3.999992
 ---------------------------------------------------------------------
                    Distance matrix (angstroms):
                    1          2          3          4          5
     1  C    0.000000
     2  C    1.403659   0.000000
     3  C    2.400732   1.403655   0.000000
     4  C    1.498203   2.547243   3.804015   0.000000
     5  H    2.157338   2.669634   4.062295   1.091200   0.000000
     6  H    2.126375   3.270209   4.420934   1.093456   1.785042
     7  H    2.125362   3.234313   4.394919   1.093970   1.783253
     8  C    3.804018   2.547244   1.498203   5.092591   5.130594
     9  H    4.420882   3.270138   2.126380   5.748756   5.849899
    10  H    4.394984   3.234396   2.125363   5.710030   5.782484
    11  H    4.062290   2.669625   2.157331   5.130583   4.936039
    12  H    2.171137   1.081548   2.171133   2.794372   2.468850
    13  O    1.282117   2.328234   2.699968   2.375185   3.291596
    14  O    2.699970   2.328235   1.282120   4.197401   4.737205
    15  H    1.936137   2.246704   1.936129   3.350209   4.092406
    16  Bq   4.213300   4.201885   4.213707   4.898606   5.199746
    17  Bq   3.976745   3.964636   3.977150   4.696479   5.012250
    18  Bq   3.741940   3.729054   3.742341   4.499165   4.830419
    19  Bq   3.509233   3.495474   3.509630   4.307326   4.654916
    20  Bq   3.279074   3.264329   3.279466   4.121726   4.486483
    21  Bq   3.052037   3.036173   3.052423   3.943246   4.325948
    22  Bq   2.828876   2.811733   2.829254   3.772898   4.174221
    23  Bq   2.610583   2.591977   2.610952   3.611832   4.032297
    24  Bq   2.398490   2.378202   2.398847   3.461344   3.901245
    25  Bq   2.194393   2.172176   2.194734   3.322871   3.782196
    26  Bq   2.000741   1.976322   2.001062   3.197974   3.676316
    27  Bq   1.820871   1.793976   1.821165   3.088302   3.584772
    28  Bq   1.659271   1.629678   1.659528   2.995527   3.508687
    29  Bq   1.521771   1.489413   1.521980   2.921258   3.449084
    30  Bq   1.415413   1.380526   1.415562   2.866935   3.406828
    31  Bq   1.347591   1.310860   1.347668   2.833706   3.382569
    32  Bq   1.324238   1.286800   1.324236   2.822314   3.376694
    33  Bq   1.347670   1.310860   1.347587   2.833024   3.389301
    34  Bq   1.415564   1.380527   1.415409   2.865588   3.420183
    35  Bq   1.521982   1.489415   1.521767   2.919275   3.468854
    36  Bq   1.659528   1.629680   1.659267   2.992948   3.534578
    37  Bq   1.821165   1.793978   1.820868   3.085175   3.616426
    38  Bq   2.001062   1.976325   2.000738   3.194351   3.713331
    39  Bq   2.194734   2.172179   2.194389   3.318802   3.824150
    40  Bq   2.398846   2.378205   2.398486   3.456879   3.947710
    41  Bq   2.610952   2.591980   2.610580   3.607019   4.082856
    42  Bq   2.829254   2.811737   2.828872   3.767778   4.228476
    43  Bq   3.052422   3.036176   3.052034   3.937858   4.383526
    44  Bq   3.279465   3.264332   3.279070   4.116102   4.547042
    45  Bq   3.509629   3.495478   3.509230   4.301495   4.718145
    46  Bq   3.742339   3.729057   3.741936   4.493154   4.896037
    47  Bq   3.977148   3.964640   3.976742   4.690309   5.080008
    48  Bq   4.213706   4.201889   4.213297   4.892297   5.269418
                    6          7          8          9         10
     6  H    0.000000
     7  H    1.763463   0.000000
     8  C    5.748847   5.709928   0.000000
     9  H    6.482531   6.211676   1.093458   0.000000
    10  H    6.211894   6.429878   1.093969   1.763462   0.000000
    11  H    5.849975   5.782373   1.091199   1.785039   1.783259
    12  H    3.578080   3.520761   2.794375   3.577968   3.520892
    13  O    2.648255   2.685274   4.197398   4.661398   4.659267
    14  O    4.661405   4.659261   2.375181   2.648336   2.685183
    15  H    3.713774   3.730804   3.350196   3.713800   3.730751
    16  Bq   4.523171   5.875383   4.892327   5.831726   4.460227
    17  Bq   4.352582   5.667937   4.690338   5.625659   4.291056
    18  Bq   4.189972   5.464054   4.493182   5.423288   4.130097
    19  Bq   4.036304   5.264149   4.301522   5.225043   3.978346
    20  Bq   3.892640   5.068692   4.116128   5.031410   3.836897
    21  Bq   3.760124   4.878219   3.937882   4.842944   3.706928
    22  Bq   3.639976   4.693336   3.767802   4.660271   3.589687
    23  Bq   3.533457   4.514729   3.607040   4.484098   3.486459
    24  Bq   3.441832   4.343174   3.456899   4.315223   3.398519
    25  Bq   3.366319   4.179538   3.318819   4.154536   3.327081
    26  Bq   3.308019   4.024788   3.194366   4.003022   3.273226
    27  Bq   3.267856   3.879987   3.085188   3.861762   3.237831
    28  Bq   3.246502   3.746288   2.992958   3.731919   3.221504
    29  Bq   3.244328   3.624921   2.919282   3.614725   3.224535
    30  Bq   3.261374   3.517163   2.865592   3.511446   3.246870
    31  Bq   3.297340   3.424297   2.833025   3.423341   3.288115
    32  Bq   3.351618   3.347565   2.822311   3.351609   3.347572
    33  Bq   3.423336   3.288095   2.833699   3.297317   3.424292
    34  Bq   3.511427   3.246837   2.866926   3.261336   3.517146
    35  Bq   3.614694   3.224489   2.921245   3.244277   3.624894
    36  Bq   3.731877   3.221445   2.995511   3.246436   3.746250
    37  Bq   3.861709   3.237760   3.088284   3.267776   3.879940
    38  Bq   4.002960   3.273143   3.197954   3.307927   4.024732
    39  Bq   4.154465   3.326988   3.322848   3.366214   4.179475
    40  Bq   4.315144   3.398415   3.461319   3.441716   4.343103
    41  Bq   4.484012   3.486345   3.611806   3.533331   4.514652
    42  Bq   4.660177   3.589566   3.772871   3.639841   4.693253
    43  Bq   4.842845   3.706800   3.943218   3.759981   4.878131
    44  Bq   5.031306   3.836762   4.121696   3.892490   5.068599
    45  Bq   5.224933   3.978206   4.307295   4.036148   5.264052
    46  Bq   5.423174   4.129952   4.499133   4.189810   5.463952
    47  Bq   5.625541   4.290907   4.696446   4.352416   5.667832
    48  Bq   5.831604   4.460074   4.898573   4.523001   5.875275
                   11         12         13         14         15
    11  H    0.000000
    12  H    2.468838   0.000000
    13  O    4.737199   3.307127   0.000000
    14  O    3.291593   3.307128   2.351785   0.000000
    15  H    4.092394   3.328252   1.199591   1.199579   0.000000
    16  Bq   5.269278   4.648550   4.231635   4.231220   4.113562
    17  Bq   5.079870   4.435258   3.996138   3.995726   3.870904
    18  Bq   4.895904   4.225993   3.762514   3.762106   3.629242
    19  Bq   4.718016   4.021383   3.531133   3.530729   3.388790
    20  Bq   4.546919   3.822176   3.302468   3.302069   3.149826
    21  Bq   4.383408   3.629260   3.077122   3.076730   2.912714
    22  Bq   4.228364   3.443695   2.855884   2.855499   2.677948
    23  Bq   4.082751   3.266732   2.639784   2.639410   2.446202
    24  Bq   3.947613   3.099846   2.430196   2.429834   2.218424
    25  Bq   3.824061   2.944749   2.228955   2.228610   1.995973
    26  Bq   3.713252   2.803400   2.038536   2.038213   1.780845
    27  Bq   3.616357   2.677976   1.862262   1.861967   1.576042
    28  Bq   3.534520   2.570809   1.704527   1.704269   1.386150
    29  Bq   3.468808   2.484263   1.570923   1.570713   1.218159
    30  Bq   3.420150   2.420550   1.468057   1.467907   1.082319
    31  Bq   3.389280   2.381505   1.402705   1.402626   0.991925
    32  Bq   3.376687   2.368348   1.380206   1.380206   0.959904
    33  Bq   3.382574   2.381507   1.402626   1.402704   0.991926
    34  Bq   3.406847   2.420553   1.467907   1.468056   1.082321
    35  Bq   3.449116   2.484267   1.570713   1.570922   1.218162
    36  Bq   3.508731   2.570814   1.704268   1.704525   1.386153
    37  Bq   3.584828   2.677982   1.861966   1.862261   1.576046
    38  Bq   3.676382   2.803407   2.038212   2.038535   1.780849
    39  Bq   3.782272   2.944758   2.228609   2.228953   1.995977
    40  Bq   3.901330   3.099855   2.429833   2.430194   2.218429
    41  Bq   4.032391   3.266742   2.639409   2.639783   2.446207
    42  Bq   4.174323   3.443706   2.855498   2.855882   2.677952
    43  Bq   4.326057   3.629272   3.076728   3.077120   2.912719
    44  Bq   4.486598   3.822187   3.302067   3.302466   3.149830
    45  Bq   4.655036   4.021395   3.530728   3.531131   3.388795
    46  Bq   4.830544   4.226006   3.762104   3.762512   3.629247
    47  Bq   5.012379   4.435271   3.995725   3.996137   3.870909
    48  Bq   5.199879   4.648562   4.231218   4.231633   4.113567
                   16         17         18         19         20
    16  Bq   0.000000
    17  Bq   0.250000   0.000000
    18  Bq   0.500000   0.250000   0.000000
    19  Bq   0.750000   0.500000   0.250000   0.000000
    20  Bq   1.000000   0.750000   0.500000   0.250000   0.000000
    21  Bq   1.250000   1.000000   0.750000   0.500000   0.250000
    22  Bq   1.500000   1.250000   1.000000   0.750000   0.500000
    23  Bq   1.750000   1.500000   1.250000   1.000000   0.750000
    24  Bq   2.000000   1.750000   1.500000   1.250000   1.000000
    25  Bq   2.250000   2.000000   1.750000   1.500000   1.250000
    26  Bq   2.500000   2.250000   2.000000   1.750000   1.500000
    27  Bq   2.750000   2.500000   2.250000   2.000000   1.750000
    28  Bq   3.000000   2.750000   2.500000   2.250000   2.000000
    29  Bq   3.250000   3.000000   2.750000   2.500000   2.250000
    30  Bq   3.500000   3.250000   3.000000   2.750000   2.500000
    31  Bq   3.750000   3.500000   3.250000   3.000000   2.750000
    32  Bq   4.000000   3.750000   3.500000   3.250000   3.000000
    33  Bq   4.250000   4.000000   3.750000   3.500000   3.250000
    34  Bq   4.500000   4.250000   4.000000   3.750000   3.500000
    35  Bq   4.750000   4.500000   4.250000   4.000000   3.750000
    36  Bq   5.000000   4.750000   4.500000   4.250000   4.000000
    37  Bq   5.250000   5.000000   4.750000   4.500000   4.250000
    38  Bq   5.500000   5.250000   5.000000   4.750000   4.500000
    39  Bq   5.750000   5.500000   5.250000   5.000000   4.750000
    40  Bq   6.000000   5.750000   5.500000   5.250000   5.000000
    41  Bq   6.250000   6.000000   5.750000   5.500000   5.250000
    42  Bq   6.500000   6.250000   6.000000   5.750000   5.500000
    43  Bq   6.750000   6.500000   6.250000   6.000000   5.750000
    44  Bq   7.000000   6.750000   6.500000   6.250000   6.000000
    45  Bq   7.250000   7.000000   6.750000   6.500000   6.250000
    46  Bq   7.500000   7.250000   7.000000   6.750000   6.500000
    47  Bq   7.750000   7.500000   7.250000   7.000000   6.750000
    48  Bq   8.000000   7.750000   7.500000   7.250000   7.000000
                   21         22         23         24         25
    21  Bq   0.000000
    22  Bq   0.250000   0.000000
    23  Bq   0.500000   0.250000   0.000000
    24  Bq   0.750000   0.500000   0.250000   0.000000
    25  Bq   1.000000   0.750000   0.500000   0.250000   0.000000
    26  Bq   1.250000   1.000000   0.750000   0.500000   0.250000
    27  Bq   1.500000   1.250000   1.000000   0.750000   0.500000
    28  Bq   1.750000   1.500000   1.250000   1.000000   0.750000
    29  Bq   2.000000   1.750000   1.500000   1.250000   1.000000
    30  Bq   2.250000   2.000000   1.750000   1.500000   1.250000
    31  Bq   2.500000   2.250000   2.000000   1.750000   1.500000
    32  Bq   2.750000   2.500000   2.250000   2.000000   1.750000
    33  Bq   3.000000   2.750000   2.500000   2.250000   2.000000
    34  Bq   3.250000   3.000000   2.750000   2.500000   2.250000
    35  Bq   3.500000   3.250000   3.000000   2.750000   2.500000
    36  Bq   3.750000   3.500000   3.250000   3.000000   2.750000
    37  Bq   4.000000   3.750000   3.500000   3.250000   3.000000
    38  Bq   4.250000   4.000000   3.750000   3.500000   3.250000
    39  Bq   4.500000   4.250000   4.000000   3.750000   3.500000
    40  Bq   4.750000   4.500000   4.250000   4.000000   3.750000
    41  Bq   5.000000   4.750000   4.500000   4.250000   4.000000
    42  Bq   5.250000   5.000000   4.750000   4.500000   4.250000
    43  Bq   5.500000   5.250000   5.000000   4.750000   4.500000
    44  Bq   5.750000   5.500000   5.250000   5.000000   4.750000
    45  Bq   6.000000   5.750000   5.500000   5.250000   5.000000
    46  Bq   6.250000   6.000000   5.750000   5.500000   5.250000
    47  Bq   6.500000   6.250000   6.000000   5.750000   5.500000
    48  Bq   6.750000   6.500000   6.250000   6.000000   5.750000
                   26         27         28         29         30
    26  Bq   0.000000
    27  Bq   0.250000   0.000000
    28  Bq   0.500000   0.250000   0.000000
    29  Bq   0.750000   0.500000   0.250000   0.000000
    30  Bq   1.000000   0.750000   0.500000   0.250000   0.000000
    31  Bq   1.250000   1.000000   0.750000   0.500000   0.250000
    32  Bq   1.500000   1.250000   1.000000   0.750000   0.500000
    33  Bq   1.750000   1.500000   1.250000   1.000000   0.750000
    34  Bq   2.000000   1.750000   1.500000   1.250000   1.000000
    35  Bq   2.250000   2.000000   1.750000   1.500000   1.250000
    36  Bq   2.500000   2.250000   2.000000   1.750000   1.500000
    37  Bq   2.750000   2.500000   2.250000   2.000000   1.750000
    38  Bq   3.000000   2.750000   2.500000   2.250000   2.000000
    39  Bq   3.250000   3.000000   2.750000   2.500000   2.250000
    40  Bq   3.500000   3.250000   3.000000   2.750000   2.500000
    41  Bq   3.750000   3.500000   3.250000   3.000000   2.750000
    42  Bq   4.000000   3.750000   3.500000   3.250000   3.000000
    43  Bq   4.250000   4.000000   3.750000   3.500000   3.250000
    44  Bq   4.500000   4.250000   4.000000   3.750000   3.500000
    45  Bq   4.750000   4.500000   4.250000   4.000000   3.750000
    46  Bq   5.000000   4.750000   4.500000   4.250000   4.000000
    47  Bq   5.250000   5.000000   4.750000   4.500000   4.250000
    48  Bq   5.500000   5.250000   5.000000   4.750000   4.500000
                   31         32         33         34         35
    31  Bq   0.000000
    32  Bq   0.250000   0.000000
    33  Bq   0.500000   0.250000   0.000000
    34  Bq   0.750000   0.500000   0.250000   0.000000
    35  Bq   1.000000   0.750000   0.500000   0.250000   0.000000
    36  Bq   1.250000   1.000000   0.750000   0.500000   0.250000
    37  Bq   1.500000   1.250000   1.000000   0.750000   0.500000
    38  Bq   1.750000   1.500000   1.250000   1.000000   0.750000
    39  Bq   2.000000   1.750000   1.500000   1.250000   1.000000
    40  Bq   2.250000   2.000000   1.750000   1.500000   1.250000
    41  Bq   2.500000   2.250000   2.000000   1.750000   1.500000
    42  Bq   2.750000   2.500000   2.250000   2.000000   1.750000
    43  Bq   3.000000   2.750000   2.500000   2.250000   2.000000
    44  Bq   3.250000   3.000000   2.750000   2.500000   2.250000
    45  Bq   3.500000   3.250000   3.000000   2.750000   2.500000
    46  Bq   3.750000   3.500000   3.250000   3.000000   2.750000
    47  Bq   4.000000   3.750000   3.500000   3.250000   3.000000
    48  Bq   4.250000   4.000000   3.750000   3.500000   3.250000
                   36         37         38         39         40
    36  Bq   0.000000
    37  Bq   0.250000   0.000000
    38  Bq   0.500000   0.250000   0.000000
    39  Bq   0.750000   0.500000   0.250000   0.000000
    40  Bq   1.000000   0.750000   0.500000   0.250000   0.000000
    41  Bq   1.250000   1.000000   0.750000   0.500000   0.250000
    42  Bq   1.500000   1.250000   1.000000   0.750000   0.500000
    43  Bq   1.750000   1.500000   1.250000   1.000000   0.750000
    44  Bq   2.000000   1.750000   1.500000   1.250000   1.000000
    45  Bq   2.250000   2.000000   1.750000   1.500000   1.250000
    46  Bq   2.500000   2.250000   2.000000   1.750000   1.500000
    47  Bq   2.750000   2.500000   2.250000   2.000000   1.750000
    48  Bq   3.000000   2.750000   2.500000   2.250000   2.000000
                   41         42         43         44         45
    41  Bq   0.000000
    42  Bq   0.250000   0.000000
    43  Bq   0.500000   0.250000   0.000000
    44  Bq   0.750000   0.500000   0.250000   0.000000
    45  Bq   1.000000   0.750000   0.500000   0.250000   0.000000
    46  Bq   1.250000   1.000000   0.750000   0.500000   0.250000
    47  Bq   1.500000   1.250000   1.000000   0.750000   0.500000
    48  Bq   1.750000   1.500000   1.250000   1.000000   0.750000
                   46         47         48
    46  Bq   0.000000
    47  Bq   0.250000   0.000000
    48  Bq   0.500000   0.250000   0.000000
 Symmetry turned off:
 Cannot cope with ghost atoms or with translation vectors.
 Stoichiometry    C5H8O2
 Framework group  C1[X(C5H8O2)]
 NUMDOF-- NAT=    15 NAtoms=    48
 Deg. of freedom     0
 Full point group                 C1      NOp   1
 Rotational constants (GHZ):      6.0608201      1.7504846      1.3814801
 Standard basis: 6-31G(d) (6D, 7F)
 Warning:  center  16 has no basis functions!
 Warning:  center  17 has no basis functions!
 Warning:  center  18 has no basis functions!
 Warning:  center  19 has no basis functions!
 Warning:  center  20 has no basis functions!
 Warning:  center  21 has no basis functions!
 Warning:  center  22 has no basis functions!
 Warning:  center  23 has no basis functions!
 Warning:  center  24 has no basis functions!
 Warning:  center  25 has no basis functions!
 Warning:  center  26 has no basis functions!
 Warning:  center  27 has no basis functions!
 Warning:  center  28 has no basis functions!
 Warning:  center  29 has no basis functions!
 Warning:  center  30 has no basis functions!
 Warning:  center  31 has no basis functions!
 Warning:  center  32 has no basis functions!
 Warning:  center  33 has no basis functions!
 Warning:  center  34 has no basis functions!
 Warning:  center  35 has no basis functions!
 Warning:  center  36 has no basis functions!
 Warning:  center  37 has no basis functions!
 Warning:  center  38 has no basis functions!
 Warning:  center  39 has no basis functions!
 Warning:  center  40 has no basis functions!
 Warning:  center  41 has no basis functions!
 Warning:  center  42 has no basis functions!
 Warning:  center  43 has no basis functions!
 Warning:  center  44 has no basis functions!
 Warning:  center  45 has no basis functions!
 Warning:  center  46 has no basis functions!
 Warning:  center  47 has no basis functions!
 Warning:  center  48 has no basis functions!
   121 basis functions,   228 primitive gaussians,   121 cartesian basis functions
    27 alpha electrons       27 beta electrons
       nuclear repulsion energy       301.1922906911 Hartrees.
 NAtoms=   48 NActive=   48 NUniq=   48 SFac= 1.00D+00 NAtFMM=   60 NAOKFM=F Big=F
 Integral buffers will be    131072 words long.
 Raffenetti 2 integral format.
 Two-electron integral symmetry is turned off.
 One-electron integrals computed using PRISM.
 PrsmSu:  requested number of processors reduced to:   9 ShMem   1 Linda.
 NBasis=   121 RedAO= T EigKep=  1.62D-03  NBF=   121
 NBsUse=   121 1.00D-06 EigRej= -1.00D+00 NBFU=   121
 ExpMin= 1.61D-01 ExpMax= 5.48D+03 ExpMxC= 8.25D+02 IAcc=1 IRadAn=         1 AccDes= 0.00D+00
 Harris functional with IExCor=  402 and IRadAn=       1 diagonalized for initial guess.
 HarFok:  IExCor=  402 AccDes= 0.00D+00 IRadAn=         1 IDoV= 1 UseB2=F ITyADJ=14
 ICtDFT=  3500011 ScaDFX=  1.000000  1.000000  1.000000  1.000000
 FoFCou: FMM=F IPFlag=           0 FMFlag=      100000 FMFlg1=           0
         NFxFlg=           0 DoJE=T BraDBF=F KetDBF=T FulRan=T
         wScrn=  0.000000 ICntrl=     500 IOpCl=  0 I1Cent=   200000004 NGrid=           0
         NMat0=    1 NMatS0=      1 NMatT0=    0 NMatD0=    1 NMtDS0=    0 NMtDT0=    0
 Symmetry not used in FoFCou.
 Keep R1 ints in memory in canonical form, NReq=28257090.
 Requested convergence on RMS density matrix=1.00D-08 within 128 cycles.
 Requested convergence on MAX density matrix=1.00D-06.
 Requested convergence on             energy=1.00D-06.
 No special actions if energy rises.
 CoulSu:  requested number of processors reduced to:   7 ShMem   1 Linda.
 Integral accuracy reduced to 1.0D-05 until final iterations.
 CalDSu:  requested number of processors reduced to:   6 ShMem   1 Linda.
 CalDSu:  requested number of processors reduced to:   6 ShMem   1 Linda.
 CalDSu:  requested number of processors reduced to:   6 ShMem   1 Linda.
 CalDSu:  requested number of processors reduced to:   6 ShMem   1 Linda.
 CalDSu:  requested number of processors reduced to:   6 ShMem   1 Linda.
 CalDSu:  requested number of processors reduced to:   6 ShMem   1 Linda.
 CalDSu:  requested number of processors reduced to:   6 ShMem   1 Linda.
 Initial convergence to 1.0D-05 achieved.  Increase integral accuracy.
 CalDSu:  requested number of processors reduced to:   6 ShMem   1 Linda.
 CalDSu:  requested number of processors reduced to:   6 ShMem   1 Linda.
 CalDSu:  requested number of processors reduced to:   6 ShMem   1 Linda.
 CalDSu:  requested number of processors reduced to:   6 ShMem   1 Linda.
 CalDSu:  requested number of processors reduced to:   6 ShMem   1 Linda.
 CalDSu:  requested number of processors reduced to:   6 ShMem   1 Linda.
 SCF Done:  E(RB3LYP) =  -345.795406683     A.U. after   13 cycles
            NFock= 13  Conv=0.44D-08     -V/T= 2.0089
 DoSCS=F DFT=T ScalE2(SS,OS)=  1.000000  1.000000
 Range of M.O.s used for correlation:     1   121
 NBasis=   121 NAE=    27 NBE=    27 NFC=     0 NFV=     0
 NROrb=    121 NOA=    27 NOB=    27 NVA=    94 NVB=    94
          Differentiating once with respect to magnetic field using GIAOs.
          Electric field/nuclear overlap derivatives assumed to be zero.
 Keep R3 ints in memory in canonical form, NReq=29288903.
 CoulSu:  requested number of processors reduced to:   7 ShMem   1 Linda.
 PrsmSu:  requested number of processors reduced to:   1 ShMem   1 Linda.
 CoulSu:  requested number of processors reduced to:   7 ShMem   1 Linda.
 FoFJK:  IHMeth= 1 ICntrl=    6127 DoSepK=F KAlg= 0 I1Cent=   0 FoldK=F
 IRaf=         1 NMat=   1 IRICut=       1 DoRegI=T DoRafI=F ISym2E= 0.
 CoulSu:  requested number of processors reduced to:   2 ShMem   1 Linda.
 CalDSu:  requested number of processors reduced to:   6 ShMem   1 Linda.
 Estimated number of processors is:    6
          There are     3 degrees of freedom in the 1st order CPHF.  IDoFFX=0 NUNeed=     3.
      3 vectors produced by pass  0 Test12= 8.46D-14 3.33D-08 XBig12= 8.58D+00 1.08D+00.
 Estimated number of processors is:    6
 AX will form     3 AO Fock derivatives at one time.
      3 vectors produced by pass  1 Test12= 8.46D-14 3.33D-08 XBig12= 2.69D-02 1.31D-01.
 Estimated number of processors is:    6
      3 vectors produced by pass  2 Test12= 8.46D-14 3.33D-08 XBig12= 1.43D-04 5.39D-03.
 Estimated number of processors is:    6
      3 vectors produced by pass  3 Test12= 8.46D-14 3.33D-08 XBig12= 1.81D-07 1.49D-04.
 Estimated number of processors is:    6
      3 vectors produced by pass  4 Test12= 8.46D-14 3.33D-08 XBig12= 4.21D-10 1.04D-05.
 Estimated number of processors is:    6
      3 vectors produced by pass  5 Test12= 8.46D-14 3.33D-08 XBig12= 7.69D-13 3.70D-07.
 Estimated number of processors is:    6
 InvSVY:  IOpt=1 It=  1 EMax= 8.88D-16
 Solved reduced A of dimension    18 with     3 vectors.
 Calculating GIAO nuclear magnetic shielding tensors.
 SCF GIAO Magnetic shielding tensor (ppm):
      1  C    Isotropic =     5.9768   Anisotropy =   164.9504
   XX=   -41.7226   YX=    20.4560   ZX=     0.1777
   XY=    30.3537   YY=   -56.2905   ZY=     0.0501
   XZ=     0.1807   YZ=     0.0301   ZZ=   115.9435
   Eigenvalues:   -75.4350   -22.5783   115.9437
      2  C    Isotropic =    95.4918   Anisotropy =    93.1120
   XX=   129.1141   YX=    -0.0002   ZX=    -0.0382
   XY=     0.0002   YY=    -0.1844   ZY=    -0.0013
   XZ=    -1.4971   YZ=    -0.0005   ZZ=   157.5458
   Eigenvalues:    -0.1844   129.0934   157.5665
      3  C    Isotropic =     5.9775   Anisotropy =   164.9494
   XX=   -41.7213   YX=   -20.4565   ZX=     0.1796
   XY=   -30.3542   YY=   -56.2899   ZY=    -0.0508
   XZ=     0.1818   YZ=    -0.0304   ZZ=   115.9435
   Eigenvalues:   -75.4346   -22.5767   115.9437
      4  C    Isotropic =   166.6164   Anisotropy =    37.0619
   XX=   183.6726   YX=   -15.6169   ZX=    -0.8844
   XY=   -11.8012   YY=   166.7414   ZY=     0.2420
   XZ=    -0.1208   YZ=    -0.1475   ZZ=   149.4352
   Eigenvalues:   149.4258   159.0991   191.3243
      5  H    Isotropic =    30.8082   Anisotropy =     5.4827
   XX=    30.9543   YX=    -1.9705   ZX=    -0.0839
   XY=     0.7177   YY=    34.3395   ZY=     0.3004
   XZ=    -0.0382   YZ=     0.2706   ZZ=    27.1307
   Eigenvalues:    27.1191    30.8421    34.4633
      6  H    Isotropic =    30.2560   Anisotropy =     6.5647
   XX=    31.4801   YX=     0.9935   ZX=    -3.6501
   XY=    -0.4876   YY=    28.7589   ZY=    -0.8445
   XZ=    -3.3297   YZ=    -0.9657   ZZ=    30.5289
   Eigenvalues:    27.2903    28.8452    34.6324
      7  H    Isotropic =    30.2184   Anisotropy =     6.5751
   XX=    31.1828   YX=     0.5760   ZX=     3.6287
   XY=    -0.6280   YY=    28.4829   ZY=     0.6094
   XZ=     3.3394   YZ=     0.6752   ZZ=    30.9896
   Eigenvalues:    27.3869    28.6666    34.6018
      8  C    Isotropic =   166.6165   Anisotropy =    37.0617
   XX=   183.6719   YX=    15.6177   ZX=    -0.8808
   XY=    11.8014   YY=   166.7420   ZY=    -0.2407
   XZ=    -0.1206   YZ=     0.1471   ZZ=   149.4356
   Eigenvalues:   149.4263   159.0989   191.3243
      9  H    Isotropic =    30.2559   Anisotropy =     6.5648
   XX=    31.4793   YX=    -0.9925   ZX=    -3.6501
   XY=     0.4880   YY=    28.7582   ZY=     0.8440
   XZ=    -3.3299   YZ=     0.9652   ZZ=    30.5301
   Eigenvalues:    27.2904    28.8448    34.6324
     10  H    Isotropic =    30.2185   Anisotropy =     6.5751
   XX=    31.1835   YX=    -0.5769   ZX=     3.6288
   XY=     0.6277   YY=    28.4834   ZY=    -0.6100
   XZ=     3.3394   YZ=    -0.6760   ZZ=    30.9886
   Eigenvalues:    27.3866    28.6670    34.6019
     11  H    Isotropic =    30.8082   Anisotropy =     5.4827
   XX=    30.9543   YX=     1.9705   ZX=    -0.0835
   XY=    -0.7178   YY=    34.3397   ZY=    -0.2990
   XZ=    -0.0381   YZ=    -0.2693   ZZ=    27.1307
   Eigenvalues:    27.1191    30.8422    34.4634
     12  H    Isotropic =    27.1646   Anisotropy =     7.1416
   XX=    31.9257   YX=     0.0000   ZX=    -0.0109
   XY=     0.0000   YY=    24.1496   ZY=     0.0000
   XZ=     0.0165   YZ=     0.0002   ZZ=    25.4186
   Eigenvalues:    24.1496    25.4186    31.9257
     13  O    Isotropic =    53.8781   Anisotropy =   440.8524
   XX=  -117.1341   YX=   -20.7870   ZX=     0.0772
   XY=    42.1771   YY=   -69.0077   ZY=    -0.4061
   XZ=    -0.2811   YZ=     2.8806   ZZ=   347.7760
   Eigenvalues:  -119.4040   -66.7414   347.7797
     14  O    Isotropic =    53.8861   Anisotropy =   440.8402
   XX=  -117.1275   YX=    20.7872   ZX=     0.0858
   XY=   -42.1756   YY=   -68.9902   ZY=     0.3998
   XZ=    -0.2699   YZ=    -2.8713   ZZ=   347.7759
   Eigenvalues:  -119.3966   -66.7247   347.7796
     15  H    Isotropic =    11.6855   Anisotropy =    26.4290
   XX=    29.3047   YX=     0.0001   ZX=    -0.0221
   XY=     0.0002   YY=     8.7447   ZY=     0.0001
   XZ=    -0.0665   YZ=    -0.0002   ZZ=    -2.9930
   Eigenvalues:    -2.9931     8.7447    29.3048
     16  Bq   Isotropic =     0.1753   Anisotropy =     2.5176
   XX=    -0.5149   YX=     0.0034   ZX=     0.0010
   XY=     0.0068   YY=    -0.7726   ZY=    -0.2892
   XZ=     0.0057   YZ=    -0.3608   ZZ=     1.8135
   Eigenvalues:    -0.8129    -0.5148     1.8537
     17  Bq   Isotropic =     0.2081   Anisotropy =     2.8510
   XX=    -0.5575   YX=     0.0038   ZX=     0.0012
   XY=     0.0076   YY=    -0.8794   ZY=    -0.3346
   XZ=     0.0066   YZ=    -0.4199   ZZ=     2.0610
   Eigenvalues:    -0.9271    -0.5574     2.1087
     18  Bq   Isotropic =     0.2483   Anisotropy =     3.2366
   XX=    -0.6009   YX=     0.0043   ZX=     0.0017
   XY=     0.0085   YY=    -1.0037   ZY=    -0.3874
   XZ=     0.0077   YZ=    -0.4905   ZZ=     2.3496
   Eigenvalues:    -1.0603    -0.6008     2.4061
     19  Bq   Isotropic =     0.2981   Anisotropy =     3.6812
   XX=    -0.6428   YX=     0.0048   ZX=     0.0023
   XY=     0.0095   YY=    -1.1479   ZY=    -0.4485
   XZ=     0.0090   YZ=    -0.5751   ZZ=     2.6851
   Eigenvalues:    -1.2152    -0.6427     2.7523
     20  Bq   Isotropic =     0.3600   Anisotropy =     4.1890
   XX=    -0.6791   YX=     0.0052   ZX=     0.0031
   XY=     0.0105   YY=    -1.3136   ZY=    -0.5189
   XZ=     0.0106   YZ=    -0.6769   ZZ=     3.0726
   Eigenvalues:    -1.3937    -0.6790     3.1527
     21  Bq   Isotropic =     0.4379   Anisotropy =     4.7562
   XX=    -0.7007   YX=     0.0056   ZX=     0.0043
   XY=     0.0115   YY=    -1.4986   ZY=    -0.5988
   XZ=     0.0124   YZ=    -0.7997   ZZ=     3.5129
   Eigenvalues:    -1.5945    -0.7006     3.6086
     22  Bq   Isotropic =     0.5384   Anisotropy =     5.3587
   XX=    -0.6892   YX=     0.0057   ZX=     0.0059
   XY=     0.0125   YY=    -1.6917   ZY=    -0.6858
   XZ=     0.0147   YZ=    -0.9458   ZZ=     3.9961
   Eigenvalues:    -1.8065    -0.6892     4.1108
     23  Bq   Isotropic =     0.6731   Anisotropy =     5.9292
   XX=    -0.6095   YX=     0.0054   ZX=     0.0079
   XY=     0.0133   YY=    -1.8606   ZY=    -0.7695
   XZ=     0.0173   YZ=    -1.1128   ZZ=     4.4893
   Eigenvalues:    -1.9972    -0.6095     4.6259
     24  Bq   Isotropic =     0.8566   Anisotropy =     6.3217
   XX=    -0.4050   YX=     0.0046   ZX=     0.0102
   XY=     0.0139   YY=    -1.9379   ZY=    -0.8201
   XZ=     0.0203   YZ=    -1.2867   ZZ=     4.9127
   Eigenvalues:    -2.0963    -0.4049     5.0711
     25  Bq   Isotropic =     1.0938   Anisotropy =     6.2703
   XX=    -0.0059   YX=     0.0034   ZX=     0.0123
   XY=     0.0143   YY=    -1.8133   ZY=    -0.7766
   XZ=     0.0236   YZ=    -1.4400   ZZ=     5.1007
   Eigenvalues:    -1.9867    -0.0059     5.2740
     26  Bq   Isotropic =     1.3484   Anisotropy =     5.3491
   XX=     0.6487   YX=     0.0016   ZX=     0.0139
   XY=     0.0144   YY=    -1.3446   ZY=    -0.5441
   XZ=     0.0273   YZ=    -1.5391   ZZ=     4.7410
   Eigenvalues:    -1.5180     0.6486     4.9144
     27  Bq   Isotropic =     1.5089   Anisotropy =     2.9419
   XX=     1.6060   YX=    -0.0005   ZX=     0.0141
   XY=     0.0142   YY=    -0.3905   ZY=    -0.0153
   XZ=     0.0316   YZ=    -1.5502   ZZ=     3.3112
   Eigenvalues:    -0.5493     1.6058     3.4701
     28  Bq   Isotropic =     1.3899   Anisotropy =     2.3175
   XX=     2.9347   YX=    -0.0027   ZX=     0.0120
   XY=     0.0136   YY=     1.1299   ZY=     0.8766
   XZ=     0.0373   YZ=    -1.4153   ZZ=     0.1052
   Eigenvalues:     0.0385     1.1964     2.9349
     29  Bq   Isotropic =     0.8184   Anisotropy =     5.8653
   XX=     4.7285   YX=    -0.0039   ZX=     0.0073
   XY=     0.0132   YY=     3.1425   ZY=     2.0123
   XZ=     0.0455   YZ=    -1.0494   ZZ=    -5.4159
   Eigenvalues:    -5.4430     3.1695     4.7286
     30  Bq   Isotropic =    -0.1765   Anisotropy =    10.6358
   XX=     6.9139   YX=    -0.0033   ZX=     0.0016
   XY=     0.0125   YY=     5.3218   ZY=     2.7902
   XZ=     0.0575   YZ=    -0.4898   ZZ=   -12.7654
   Eigenvalues:   -12.8383     5.3946     6.9140
     31  Bq   Isotropic =    -1.2015   Anisotropy =    15.1738
   XX=     8.9144   YX=    -0.0015   ZX=    -0.0024
   XY=     0.0085   YY=     7.0811   ZY=     2.1855
   XZ=     0.0712   YZ=    -0.0611   ZZ=   -19.5999
   Eigenvalues:   -19.6421     7.1233     8.9144
     32  Bq   Isotropic =    -1.6471   Anisotropy =    17.1020
   XX=     9.7542   YX=    -0.0001   ZX=    -0.0036
   XY=    -0.0001   YY=     7.7686   ZY=     0.0001
   XZ=     0.0778   YZ=     0.0000   ZZ=   -22.4640
   Eigenvalues:   -22.4640     7.7686     9.7543
     33  Bq   Isotropic =    -1.2014   Anisotropy =    15.1739
   XX=     8.9144   YX=     0.0015   ZX=    -0.0023
   XY=    -0.0087   YY=     7.0811   ZY=    -2.1853
   XZ=     0.0713   YZ=     0.0611   ZZ=   -19.5999
   Eigenvalues:   -19.6422     7.1233     8.9145
     34  Bq   Isotropic =    -0.1765   Anisotropy =    10.6360
   XX=     6.9141   YX=     0.0032   ZX=     0.0017
   XY=    -0.0126   YY=     5.3218   ZY=    -2.7901
   XZ=     0.0576   YZ=     0.4898   ZZ=   -12.7654
   Eigenvalues:   -12.8383     5.3946     6.9141
     35  Bq   Isotropic =     0.8184   Anisotropy =     5.8654
   XX=     4.7286   YX=     0.0039   ZX=     0.0074
   XY=    -0.0133   YY=     3.1425   ZY=    -2.0122
   XZ=     0.0456   YZ=     1.0493   ZZ=    -5.4159
   Eigenvalues:    -5.4430     3.1695     4.7287
     36  Bq   Isotropic =     1.3900   Anisotropy =     2.3176
   XX=     2.9348   YX=     0.0027   ZX=     0.0121
   XY=    -0.0137   YY=     1.1299   ZY=    -0.8766
   XZ=     0.0373   YZ=     1.4152   ZZ=     0.1053
   Eigenvalues:     0.0386     1.1964     2.9351
     37  Bq   Isotropic =     1.5089   Anisotropy =     2.9418
   XX=     1.6061   YX=     0.0005   ZX=     0.0142
   XY=    -0.0142   YY=    -0.3906   ZY=     0.0152
   XZ=     0.0316   YZ=     1.5501   ZZ=     3.3112
   Eigenvalues:    -0.5493     1.6059     3.4701
     38  Bq   Isotropic =     1.3484   Anisotropy =     5.3491
   XX=     0.6488   YX=    -0.0016   ZX=     0.0140
   XY=    -0.0145   YY=    -1.3447   ZY=     0.5439
   XZ=     0.0273   YZ=     1.5390   ZZ=     4.7411
   Eigenvalues:    -1.5180     0.6488     4.9144
     39  Bq   Isotropic =     1.0939   Anisotropy =     6.2703
   XX=    -0.0058   YX=    -0.0034   ZX=     0.0124
   XY=    -0.0144   YY=    -1.8133   ZY=     0.7765
   XZ=     0.0236   YZ=     1.4399   ZZ=     5.1007
   Eigenvalues:    -1.9867    -0.0058     5.2740
     40  Bq   Isotropic =     0.8567   Anisotropy =     6.3216
   XX=    -0.4049   YX=    -0.0046   ZX=     0.0102
   XY=    -0.0140   YY=    -1.9379   ZY=     0.8200
   XZ=     0.0203   YZ=     1.2866   ZZ=     4.9128
   Eigenvalues:    -2.0963    -0.4048     5.0711
     41  Bq   Isotropic =     0.6731   Anisotropy =     5.9292
   XX=    -0.6095   YX=    -0.0054   ZX=     0.0079
   XY=    -0.0133   YY=    -1.8606   ZY=     0.7694
   XZ=     0.0173   YZ=     1.1127   ZZ=     4.4893
   Eigenvalues:    -1.9972    -0.6094     4.6258
     42  Bq   Isotropic =     0.5384   Anisotropy =     5.3587
   XX=    -0.6892   YX=    -0.0057   ZX=     0.0060
   XY=    -0.0125   YY=    -1.6918   ZY=     0.6858
   XZ=     0.0147   YZ=     0.9457   ZZ=     3.9961
   Eigenvalues:    -1.8065    -0.6891     4.1108
     43  Bq   Isotropic =     0.4379   Anisotropy =     4.7561
   XX=    -0.7006   YX=    -0.0056   ZX=     0.0043
   XY=    -0.0115   YY=    -1.4987   ZY=     0.5987
   XZ=     0.0124   YZ=     0.7996   ZZ=     3.5129
   Eigenvalues:    -1.5945    -0.7005     3.6086
     44  Bq   Isotropic =     0.3600   Anisotropy =     4.1890
   XX=    -0.6790   YX=    -0.0053   ZX=     0.0031
   XY=    -0.0105   YY=    -1.3136   ZY=     0.5188
   XZ=     0.0105   YZ=     0.6769   ZZ=     3.0726
   Eigenvalues:    -1.3938    -0.6789     3.1526
     45  Bq   Isotropic =     0.2981   Anisotropy =     3.6812
   XX=    -0.6428   YX=    -0.0048   ZX=     0.0023
   XY=    -0.0095   YY=    -1.1480   ZY=     0.4484
   XZ=     0.0090   YZ=     0.5750   ZZ=     2.6851
   Eigenvalues:    -1.2152    -0.6427     2.7523
     46  Bq   Isotropic =     0.2483   Anisotropy =     3.2366
   XX=    -0.6009   YX=    -0.0043   ZX=     0.0017
   XY=    -0.0085   YY=    -1.0037   ZY=     0.3873
   XZ=     0.0077   YZ=     0.4904   ZZ=     2.3496
   Eigenvalues:    -1.0603    -0.6008     2.4061
     47  Bq   Isotropic =     0.2080   Anisotropy =     2.8510
   XX=    -0.5575   YX=    -0.0038   ZX=     0.0013
   XY=    -0.0076   YY=    -0.8794   ZY=     0.3346
   XZ=     0.0066   YZ=     0.4199   ZZ=     2.0611
   Eigenvalues:    -0.9271    -0.5574     2.1087
     48  Bq   Isotropic =     0.1753   Anisotropy =     2.5176
   XX=    -0.5149   YX=    -0.0034   ZX=     0.0010
   XY=    -0.0068   YY=    -0.7727   ZY=     0.2892
   XZ=     0.0057   YZ=     0.3608   ZZ=     1.8135
   Eigenvalues:    -0.8130    -0.5148     1.8537
 End of Minotr F.D. properties file   721 does not exist.
 End of Minotr F.D. properties file   722 does not exist.
 End of Minotr F.D. properties file   788 does not exist.

 **********************************************************************

            Population analysis using the SCF density.

 **********************************************************************

 Alpha  occ. eigenvalues --  -19.15061 -19.15061 -10.27503 -10.27503 -10.19343
 Alpha  occ. eigenvalues --  -10.19343 -10.17592  -1.07269  -1.02401  -0.79145
 Alpha  occ. eigenvalues --   -0.75330  -0.71504  -0.58195  -0.57828  -0.49606
 Alpha  occ. eigenvalues --   -0.47499  -0.45448  -0.43785  -0.42698  -0.42011
 Alpha  occ. eigenvalues --   -0.41117  -0.38760  -0.37768  -0.35557  -0.34564
 Alpha  occ. eigenvalues --   -0.25818  -0.23579
 Alpha virt. eigenvalues --   -0.04442   0.08035   0.09876   0.11583   0.12647
 Alpha virt. eigenvalues --    0.15560   0.17349   0.17530   0.17921   0.21919
 Alpha virt. eigenvalues --    0.22939   0.23016   0.27956   0.35438   0.41565
 Alpha virt. eigenvalues --    0.42088   0.50428   0.53573   0.54042   0.54682
 Alpha virt. eigenvalues --    0.56484   0.57967   0.58523   0.60268   0.66457
 Alpha virt. eigenvalues --    0.66761   0.67706   0.68308   0.70353   0.71688
 Alpha virt. eigenvalues --    0.78401   0.85042   0.85761   0.86477   0.87818
 Alpha virt. eigenvalues --    0.90650   0.92528   0.93792   0.94148   0.95251
 Alpha virt. eigenvalues --    0.99656   1.03215   1.05559   1.07829   1.13843
 Alpha virt. eigenvalues --    1.18519   1.23556   1.27545   1.30573   1.34579
 Alpha virt. eigenvalues --    1.42630   1.44324   1.48437   1.50920   1.64776
 Alpha virt. eigenvalues --    1.73465   1.74970   1.77300   1.78043   1.80281
 Alpha virt. eigenvalues --    1.81764   1.87643   1.88050   1.91538   1.93656
 Alpha virt. eigenvalues --    1.96044   2.01323   2.06273   2.19938   2.20074
 Alpha virt. eigenvalues --    2.21697   2.21843   2.27531   2.29991   2.35361
 Alpha virt. eigenvalues --    2.36172   2.40300   2.51615   2.54558   2.61194
 Alpha virt. eigenvalues --    2.64245   2.75753   2.79882   2.89313   2.96970
 Alpha virt. eigenvalues --    3.00720   3.24814   3.98649   4.01579   4.15462
 Alpha virt. eigenvalues --    4.20062   4.29572   4.51772   4.55979
          Condensed to atoms (all electrons):
               1          2          3          4          5          6
     1  C    4.451616   0.487341  -0.018943   0.364825  -0.030186  -0.020643
     2  C    0.487341   5.270616   0.487347  -0.074207   0.003173   0.001590
     3  C   -0.018943   0.487347   4.451615   0.004124   0.000340  -0.000130
     4  C    0.364825  -0.074207   0.004124   5.221688   0.359839   0.357179
     5  H   -0.030186   0.003173   0.000340   0.359839   0.549451  -0.024880
     6  H   -0.020643   0.001590  -0.000130   0.357179  -0.024880   0.525200
     7  H   -0.020644   0.000929  -0.000147   0.357763  -0.024813  -0.024084
     8  C    0.004124  -0.074206   0.364826  -0.000273   0.000010   0.000003
     9  H   -0.000130   0.001588  -0.020643   0.000003   0.000000   0.000000
    10  H   -0.000147   0.000930  -0.020643   0.000003   0.000000   0.000000
    11  H    0.000340   0.003173  -0.030187   0.000010  -0.000006   0.000000
    12  H   -0.029953   0.349043  -0.029952  -0.002622   0.002750   0.000022
    13  O    0.393038  -0.068175   0.005546  -0.074123   0.003082   0.001339
    14  O    0.005546  -0.068174   0.393035  -0.000068   0.000026   0.000017
    15  H   -0.021985  -0.014250  -0.021986   0.003647  -0.000149  -0.000029
    16  Bq   0.000000   0.000000   0.000000   0.000000   0.000000   0.000000
    17  Bq   0.000000   0.000000   0.000000   0.000000   0.000000   0.000000
    18  Bq   0.000000   0.000000   0.000000   0.000000   0.000000   0.000000
    19  Bq   0.000000   0.000000   0.000000   0.000000   0.000000   0.000000
    20  Bq   0.000000   0.000000   0.000000   0.000000   0.000000   0.000000
    21  Bq   0.000000   0.000000   0.000000   0.000000   0.000000   0.000000
    22  Bq   0.000000   0.000000   0.000000   0.000000   0.000000   0.000000
    23  Bq   0.000000   0.000000   0.000000   0.000000   0.000000   0.000000
    24  Bq   0.000000   0.000000   0.000000   0.000000   0.000000   0.000000
    25  Bq   0.000000   0.000000   0.000000   0.000000   0.000000   0.000000
    26  Bq   0.000000   0.000000   0.000000   0.000000   0.000000   0.000000
    27  Bq   0.000000   0.000000   0.000000   0.000000   0.000000   0.000000
    28  Bq   0.000000   0.000000   0.000000   0.000000   0.000000   0.000000
    29  Bq   0.000000   0.000000   0.000000   0.000000   0.000000   0.000000
    30  Bq   0.000000   0.000000   0.000000   0.000000   0.000000   0.000000
    31  Bq   0.000000   0.000000   0.000000   0.000000   0.000000   0.000000
    32  Bq   0.000000   0.000000   0.000000   0.000000   0.000000   0.000000
    33  Bq   0.000000   0.000000   0.000000   0.000000   0.000000   0.000000
    34  Bq   0.000000   0.000000   0.000000   0.000000   0.000000   0.000000
    35  Bq   0.000000   0.000000   0.000000   0.000000   0.000000   0.000000
    36  Bq   0.000000   0.000000   0.000000   0.000000   0.000000   0.000000
    37  Bq   0.000000   0.000000   0.000000   0.000000   0.000000   0.000000
    38  Bq   0.000000   0.000000   0.000000   0.000000   0.000000   0.000000
    39  Bq   0.000000   0.000000   0.000000   0.000000   0.000000   0.000000
    40  Bq   0.000000   0.000000   0.000000   0.000000   0.000000   0.000000
    41  Bq   0.000000   0.000000   0.000000   0.000000   0.000000   0.000000
    42  Bq   0.000000   0.000000   0.000000   0.000000   0.000000   0.000000
    43  Bq   0.000000   0.000000   0.000000   0.000000   0.000000   0.000000
    44  Bq   0.000000   0.000000   0.000000   0.000000   0.000000   0.000000
    45  Bq   0.000000   0.000000   0.000000   0.000000   0.000000   0.000000
    46  Bq   0.000000   0.000000   0.000000   0.000000   0.000000   0.000000
    47  Bq   0.000000   0.000000   0.000000   0.000000   0.000000   0.000000
    48  Bq   0.000000   0.000000   0.000000   0.000000   0.000000   0.000000
               7          8          9         10         11         12
     1  C   -0.020644   0.004124  -0.000130  -0.000147   0.000340  -0.029953
     2  C    0.000929  -0.074206   0.001588   0.000930   0.003173   0.349043
     3  C   -0.000147   0.364826  -0.020643  -0.020643  -0.030187  -0.029952
     4  C    0.357763  -0.000273   0.000003   0.000003   0.000010  -0.002622
     5  H   -0.024813   0.000010   0.000000   0.000000  -0.000006   0.002750
     6  H   -0.024084   0.000003   0.000000   0.000000   0.000000   0.000022
     7  H    0.525233   0.000003   0.000000   0.000000   0.000000   0.000039
     8  C    0.000003   5.221685   0.357181   0.357761   0.359838  -0.002622
     9  H    0.000000   0.357181   0.525200  -0.024084  -0.024880   0.000022
    10  H    0.000000   0.357761  -0.024084   0.525234  -0.024813   0.000039
    11  H    0.000000   0.359838  -0.024880  -0.024813   0.549452   0.002750
    12  H    0.000039  -0.002622   0.000022   0.000039   0.002750   0.576658
    13  O    0.000964  -0.000068   0.000017   0.000017   0.000026   0.003198
    14  O    0.000017  -0.074124   0.001338   0.000965   0.003083   0.003198
    15  H   -0.000048   0.003647  -0.000029  -0.000048  -0.000149  -0.000261
    16  Bq   0.000000   0.000000   0.000000   0.000000   0.000000   0.000000
    17  Bq   0.000000   0.000000   0.000000   0.000000   0.000000   0.000000
    18  Bq   0.000000   0.000000   0.000000   0.000000   0.000000   0.000000
    19  Bq   0.000000   0.000000   0.000000   0.000000   0.000000   0.000000
    20  Bq   0.000000   0.000000   0.000000   0.000000   0.000000   0.000000
    21  Bq   0.000000   0.000000   0.000000   0.000000   0.000000   0.000000
    22  Bq   0.000000   0.000000   0.000000   0.000000   0.000000   0.000000
    23  Bq   0.000000   0.000000   0.000000   0.000000   0.000000   0.000000
    24  Bq   0.000000   0.000000   0.000000   0.000000   0.000000   0.000000
    25  Bq   0.000000   0.000000   0.000000   0.000000   0.000000   0.000000
    26  Bq   0.000000   0.000000   0.000000   0.000000   0.000000   0.000000
    27  Bq   0.000000   0.000000   0.000000   0.000000   0.000000   0.000000
    28  Bq   0.000000   0.000000   0.000000   0.000000   0.000000   0.000000
    29  Bq   0.000000   0.000000   0.000000   0.000000   0.000000   0.000000
    30  Bq   0.000000   0.000000   0.000000   0.000000   0.000000   0.000000
    31  Bq   0.000000   0.000000   0.000000   0.000000   0.000000   0.000000
    32  Bq   0.000000   0.000000   0.000000   0.000000   0.000000   0.000000
    33  Bq   0.000000   0.000000   0.000000   0.000000   0.000000   0.000000
    34  Bq   0.000000   0.000000   0.000000   0.000000   0.000000   0.000000
    35  Bq   0.000000   0.000000   0.000000   0.000000   0.000000   0.000000
    36  Bq   0.000000   0.000000   0.000000   0.000000   0.000000   0.000000
    37  Bq   0.000000   0.000000   0.000000   0.000000   0.000000   0.000000
    38  Bq   0.000000   0.000000   0.000000   0.000000   0.000000   0.000000
    39  Bq   0.000000   0.000000   0.000000   0.000000   0.000000   0.000000
    40  Bq   0.000000   0.000000   0.000000   0.000000   0.000000   0.000000
    41  Bq   0.000000   0.000000   0.000000   0.000000   0.000000   0.000000
    42  Bq   0.000000   0.000000   0.000000   0.000000   0.000000   0.000000
    43  Bq   0.000000   0.000000   0.000000   0.000000   0.000000   0.000000
    44  Bq   0.000000   0.000000   0.000000   0.000000   0.000000   0.000000
    45  Bq   0.000000   0.000000   0.000000   0.000000   0.000000   0.000000
    46  Bq   0.000000   0.000000   0.000000   0.000000   0.000000   0.000000
    47  Bq   0.000000   0.000000   0.000000   0.000000   0.000000   0.000000
    48  Bq   0.000000   0.000000   0.000000   0.000000   0.000000   0.000000
              13         14         15         16         17         18
     1  C    0.393038   0.005546  -0.021985   0.000000   0.000000   0.000000
     2  C   -0.068175  -0.068174  -0.014250   0.000000   0.000000   0.000000
     3  C    0.005546   0.393035  -0.021986   0.000000   0.000000   0.000000
     4  C   -0.074123  -0.000068   0.003647   0.000000   0.000000   0.000000
     5  H    0.003082   0.000026  -0.000149   0.000000   0.000000   0.000000
     6  H    0.001339   0.000017  -0.000029   0.000000   0.000000   0.000000
     7  H    0.000964   0.000017  -0.000048   0.000000   0.000000   0.000000
     8  C   -0.000068  -0.074124   0.003647   0.000000   0.000000   0.000000
     9  H    0.000017   0.001338  -0.000029   0.000000   0.000000   0.000000
    10  H    0.000017   0.000965  -0.000048   0.000000   0.000000   0.000000
    11  H    0.000026   0.003083  -0.000149   0.000000   0.000000   0.000000
    12  H    0.003198   0.003198  -0.000261   0.000000   0.000000   0.000000
    13  O    8.300235  -0.109034   0.142372   0.000000   0.000000   0.000000
    14  O   -0.109034   8.300237   0.142375   0.000000   0.000000   0.000000
    15  H    0.142372   0.142375   0.288157   0.000000   0.000000   0.000000
    16  Bq   0.000000   0.000000   0.000000   0.000000   0.000000   0.000000
    17  Bq   0.000000   0.000000   0.000000   0.000000   0.000000   0.000000
    18  Bq   0.000000   0.000000   0.000000   0.000000   0.000000   0.000000
    19  Bq   0.000000   0.000000   0.000000   0.000000   0.000000   0.000000
    20  Bq   0.000000   0.000000   0.000000   0.000000   0.000000   0.000000
    21  Bq   0.000000   0.000000   0.000000   0.000000   0.000000   0.000000
    22  Bq   0.000000   0.000000   0.000000   0.000000   0.000000   0.000000
    23  Bq   0.000000   0.000000   0.000000   0.000000   0.000000   0.000000
    24  Bq   0.000000   0.000000   0.000000   0.000000   0.000000   0.000000
    25  Bq   0.000000   0.000000   0.000000   0.000000   0.000000   0.000000
    26  Bq   0.000000   0.000000   0.000000   0.000000   0.000000   0.000000
    27  Bq   0.000000   0.000000   0.000000   0.000000   0.000000   0.000000
    28  Bq   0.000000   0.000000   0.000000   0.000000   0.000000   0.000000
    29  Bq   0.000000   0.000000   0.000000   0.000000   0.000000   0.000000
    30  Bq   0.000000   0.000000   0.000000   0.000000   0.000000   0.000000
    31  Bq   0.000000   0.000000   0.000000   0.000000   0.000000   0.000000
    32  Bq   0.000000   0.000000   0.000000   0.000000   0.000000   0.000000
    33  Bq   0.000000   0.000000   0.000000   0.000000   0.000000   0.000000
    34  Bq   0.000000   0.000000   0.000000   0.000000   0.000000   0.000000
    35  Bq   0.000000   0.000000   0.000000   0.000000   0.000000   0.000000
    36  Bq   0.000000   0.000000   0.000000   0.000000   0.000000   0.000000
    37  Bq   0.000000   0.000000   0.000000   0.000000   0.000000   0.000000
    38  Bq   0.000000   0.000000   0.000000   0.000000   0.000000   0.000000
    39  Bq   0.000000   0.000000   0.000000   0.000000   0.000000   0.000000
    40  Bq   0.000000   0.000000   0.000000   0.000000   0.000000   0.000000
    41  Bq   0.000000   0.000000   0.000000   0.000000   0.000000   0.000000
    42  Bq   0.000000   0.000000   0.000000   0.000000   0.000000   0.000000
    43  Bq   0.000000   0.000000   0.000000   0.000000   0.000000   0.000000
    44  Bq   0.000000   0.000000   0.000000   0.000000   0.000000   0.000000
    45  Bq   0.000000   0.000000   0.000000   0.000000   0.000000   0.000000
    46  Bq   0.000000   0.000000   0.000000   0.000000   0.000000   0.000000
    47  Bq   0.000000   0.000000   0.000000   0.000000   0.000000   0.000000
    48  Bq   0.000000   0.000000   0.000000   0.000000   0.000000   0.000000
              19         20         21         22         23         24
     1  C    0.000000   0.000000   0.000000   0.000000   0.000000   0.000000
     2  C    0.000000   0.000000   0.000000   0.000000   0.000000   0.000000
     3  C    0.000000   0.000000   0.000000   0.000000   0.000000   0.000000
     4  C    0.000000   0.000000   0.000000   0.000000   0.000000   0.000000
     5  H    0.000000   0.000000   0.000000   0.000000   0.000000   0.000000
     6  H    0.000000   0.000000   0.000000   0.000000   0.000000   0.000000
     7  H    0.000000   0.000000   0.000000   0.000000   0.000000   0.000000
     8  C    0.000000   0.000000   0.000000   0.000000   0.000000   0.000000
     9  H    0.000000   0.000000   0.000000   0.000000   0.000000   0.000000
    10  H    0.000000   0.000000   0.000000   0.000000   0.000000   0.000000
    11  H    0.000000   0.000000   0.000000   0.000000   0.000000   0.000000
    12  H    0.000000   0.000000   0.000000   0.000000   0.000000   0.000000
    13  O    0.000000   0.000000   0.000000   0.000000   0.000000   0.000000
    14  O    0.000000   0.000000   0.000000   0.000000   0.000000   0.000000
    15  H    0.000000   0.000000   0.000000   0.000000   0.000000   0.000000
    16  Bq   0.000000   0.000000   0.000000   0.000000   0.000000   0.000000
    17  Bq   0.000000   0.000000   0.000000   0.000000   0.000000   0.000000
    18  Bq   0.000000   0.000000   0.000000   0.000000   0.000000   0.000000
    19  Bq   0.000000   0.000000   0.000000   0.000000   0.000000   0.000000
    20  Bq   0.000000   0.000000   0.000000   0.000000   0.000000   0.000000
    21  Bq   0.000000   0.000000   0.000000   0.000000   0.000000   0.000000
    22  Bq   0.000000   0.000000   0.000000   0.000000   0.000000   0.000000
    23  Bq   0.000000   0.000000   0.000000   0.000000   0.000000   0.000000
    24  Bq   0.000000   0.000000   0.000000   0.000000   0.000000   0.000000
    25  Bq   0.000000   0.000000   0.000000   0.000000   0.000000   0.000000
    26  Bq   0.000000   0.000000   0.000000   0.000000   0.000000   0.000000
    27  Bq   0.000000   0.000000   0.000000   0.000000   0.000000   0.000000
    28  Bq   0.000000   0.000000   0.000000   0.000000   0.000000   0.000000
    29  Bq   0.000000   0.000000   0.000000   0.000000   0.000000   0.000000
    30  Bq   0.000000   0.000000   0.000000   0.000000   0.000000   0.000000
    31  Bq   0.000000   0.000000   0.000000   0.000000   0.000000   0.000000
    32  Bq   0.000000   0.000000   0.000000   0.000000   0.000000   0.000000
    33  Bq   0.000000   0.000000   0.000000   0.000000   0.000000   0.000000
    34  Bq   0.000000   0.000000   0.000000   0.000000   0.000000   0.000000
    35  Bq   0.000000   0.000000   0.000000   0.000000   0.000000   0.000000
    36  Bq   0.000000   0.000000   0.000000   0.000000   0.000000   0.000000
    37  Bq   0.000000   0.000000   0.000000   0.000000   0.000000   0.000000
    38  Bq   0.000000   0.000000   0.000000   0.000000   0.000000   0.000000
    39  Bq   0.000000   0.000000   0.000000   0.000000   0.000000   0.000000
    40  Bq   0.000000   0.000000   0.000000   0.000000   0.000000   0.000000
    41  Bq   0.000000   0.000000   0.000000   0.000000   0.000000   0.000000
    42  Bq   0.000000   0.000000   0.000000   0.000000   0.000000   0.000000
    43  Bq   0.000000   0.000000   0.000000   0.000000   0.000000   0.000000
    44  Bq   0.000000   0.000000   0.000000   0.000000   0.000000   0.000000
    45  Bq   0.000000   0.000000   0.000000   0.000000   0.000000   0.000000
    46  Bq   0.000000   0.000000   0.000000   0.000000   0.000000   0.000000
    47  Bq   0.000000   0.000000   0.000000   0.000000   0.000000   0.000000
    48  Bq   0.000000   0.000000   0.000000   0.000000   0.000000   0.000000
              25         26         27         28         29         30
     1  C    0.000000   0.000000   0.000000   0.000000   0.000000   0.000000
     2  C    0.000000   0.000000   0.000000   0.000000   0.000000   0.000000
     3  C    0.000000   0.000000   0.000000   0.000000   0.000000   0.000000
     4  C    0.000000   0.000000   0.000000   0.000000   0.000000   0.000000
     5  H    0.000000   0.000000   0.000000   0.000000   0.000000   0.000000
     6  H    0.000000   0.000000   0.000000   0.000000   0.000000   0.000000
     7  H    0.000000   0.000000   0.000000   0.000000   0.000000   0.000000
     8  C    0.000000   0.000000   0.000000   0.000000   0.000000   0.000000
     9  H    0.000000   0.000000   0.000000   0.000000   0.000000   0.000000
    10  H    0.000000   0.000000   0.000000   0.000000   0.000000   0.000000
    11  H    0.000000   0.000000   0.000000   0.000000   0.000000   0.000000
    12  H    0.000000   0.000000   0.000000   0.000000   0.000000   0.000000
    13  O    0.000000   0.000000   0.000000   0.000000   0.000000   0.000000
    14  O    0.000000   0.000000   0.000000   0.000000   0.000000   0.000000
    15  H    0.000000   0.000000   0.000000   0.000000   0.000000   0.000000
    16  Bq   0.000000   0.000000   0.000000   0.000000   0.000000   0.000000
    17  Bq   0.000000   0.000000   0.000000   0.000000   0.000000   0.000000
    18  Bq   0.000000   0.000000   0.000000   0.000000   0.000000   0.000000
    19  Bq   0.000000   0.000000   0.000000   0.000000   0.000000   0.000000
    20  Bq   0.000000   0.000000   0.000000   0.000000   0.000000   0.000000
    21  Bq   0.000000   0.000000   0.000000   0.000000   0.000000   0.000000
    22  Bq   0.000000   0.000000   0.000000   0.000000   0.000000   0.000000
    23  Bq   0.000000   0.000000   0.000000   0.000000   0.000000   0.000000
    24  Bq   0.000000   0.000000   0.000000   0.000000   0.000000   0.000000
    25  Bq   0.000000   0.000000   0.000000   0.000000   0.000000   0.000000
    26  Bq   0.000000   0.000000   0.000000   0.000000   0.000000   0.000000
    27  Bq   0.000000   0.000000   0.000000   0.000000   0.000000   0.000000
    28  Bq   0.000000   0.000000   0.000000   0.000000   0.000000   0.000000
    29  Bq   0.000000   0.000000   0.000000   0.000000   0.000000   0.000000
    30  Bq   0.000000   0.000000   0.000000   0.000000   0.000000   0.000000
    31  Bq   0.000000   0.000000   0.000000   0.000000   0.000000   0.000000
    32  Bq   0.000000   0.000000   0.000000   0.000000   0.000000   0.000000
    33  Bq   0.000000   0.000000   0.000000   0.000000   0.000000   0.000000
    34  Bq   0.000000   0.000000   0.000000   0.000000   0.000000   0.000000
    35  Bq   0.000000   0.000000   0.000000   0.000000   0.000000   0.000000
    36  Bq   0.000000   0.000000   0.000000   0.000000   0.000000   0.000000
    37  Bq   0.000000   0.000000   0.000000   0.000000   0.000000   0.000000
    38  Bq   0.000000   0.000000   0.000000   0.000000   0.000000   0.000000
    39  Bq   0.000000   0.000000   0.000000   0.000000   0.000000   0.000000
    40  Bq   0.000000   0.000000   0.000000   0.000000   0.000000   0.000000
    41  Bq   0.000000   0.000000   0.000000   0.000000   0.000000   0.000000
    42  Bq   0.000000   0.000000   0.000000   0.000000   0.000000   0.000000
    43  Bq   0.000000   0.000000   0.000000   0.000000   0.000000   0.000000
    44  Bq   0.000000   0.000000   0.000000   0.000000   0.000000   0.000000
    45  Bq   0.000000   0.000000   0.000000   0.000000   0.000000   0.000000
    46  Bq   0.000000   0.000000   0.000000   0.000000   0.000000   0.000000
    47  Bq   0.000000   0.000000   0.000000   0.000000   0.000000   0.000000
    48  Bq   0.000000   0.000000   0.000000   0.000000   0.000000   0.000000
              31         32         33         34         35         36
     1  C    0.000000   0.000000   0.000000   0.000000   0.000000   0.000000
     2  C    0.000000   0.000000   0.000000   0.000000   0.000000   0.000000
     3  C    0.000000   0.000000   0.000000   0.000000   0.000000   0.000000
     4  C    0.000000   0.000000   0.000000   0.000000   0.000000   0.000000
     5  H    0.000000   0.000000   0.000000   0.000000   0.000000   0.000000
     6  H    0.000000   0.000000   0.000000   0.000000   0.000000   0.000000
     7  H    0.000000   0.000000   0.000000   0.000000   0.000000   0.000000
     8  C    0.000000   0.000000   0.000000   0.000000   0.000000   0.000000
     9  H    0.000000   0.000000   0.000000   0.000000   0.000000   0.000000
    10  H    0.000000   0.000000   0.000000   0.000000   0.000000   0.000000
    11  H    0.000000   0.000000   0.000000   0.000000   0.000000   0.000000
    12  H    0.000000   0.000000   0.000000   0.000000   0.000000   0.000000
    13  O    0.000000   0.000000   0.000000   0.000000   0.000000   0.000000
    14  O    0.000000   0.000000   0.000000   0.000000   0.000000   0.000000
    15  H    0.000000   0.000000   0.000000   0.000000   0.000000   0.000000
    16  Bq   0.000000   0.000000   0.000000   0.000000   0.000000   0.000000
    17  Bq   0.000000   0.000000   0.000000   0.000000   0.000000   0.000000
    18  Bq   0.000000   0.000000   0.000000   0.000000   0.000000   0.000000
    19  Bq   0.000000   0.000000   0.000000   0.000000   0.000000   0.000000
    20  Bq   0.000000   0.000000   0.000000   0.000000   0.000000   0.000000
    21  Bq   0.000000   0.000000   0.000000   0.000000   0.000000   0.000000
    22  Bq   0.000000   0.000000   0.000000   0.000000   0.000000   0.000000
    23  Bq   0.000000   0.000000   0.000000   0.000000   0.000000   0.000000
    24  Bq   0.000000   0.000000   0.000000   0.000000   0.000000   0.000000
    25  Bq   0.000000   0.000000   0.000000   0.000000   0.000000   0.000000
    26  Bq   0.000000   0.000000   0.000000   0.000000   0.000000   0.000000
    27  Bq   0.000000   0.000000   0.000000   0.000000   0.000000   0.000000
    28  Bq   0.000000   0.000000   0.000000   0.000000   0.000000   0.000000
    29  Bq   0.000000   0.000000   0.000000   0.000000   0.000000   0.000000
    30  Bq   0.000000   0.000000   0.000000   0.000000   0.000000   0.000000
    31  Bq   0.000000   0.000000   0.000000   0.000000   0.000000   0.000000
    32  Bq   0.000000   0.000000   0.000000   0.000000   0.000000   0.000000
    33  Bq   0.000000   0.000000   0.000000   0.000000   0.000000   0.000000
    34  Bq   0.000000   0.000000   0.000000   0.000000   0.000000   0.000000
    35  Bq   0.000000   0.000000   0.000000   0.000000   0.000000   0.000000
    36  Bq   0.000000   0.000000   0.000000   0.000000   0.000000   0.000000
    37  Bq   0.000000   0.000000   0.000000   0.000000   0.000000   0.000000
    38  Bq   0.000000   0.000000   0.000000   0.000000   0.000000   0.000000
    39  Bq   0.000000   0.000000   0.000000   0.000000   0.000000   0.000000
    40  Bq   0.000000   0.000000   0.000000   0.000000   0.000000   0.000000
    41  Bq   0.000000   0.000000   0.000000   0.000000   0.000000   0.000000
    42  Bq   0.000000   0.000000   0.000000   0.000000   0.000000   0.000000
    43  Bq   0.000000   0.000000   0.000000   0.000000   0.000000   0.000000
    44  Bq   0.000000   0.000000   0.000000   0.000000   0.000000   0.000000
    45  Bq   0.000000   0.000000   0.000000   0.000000   0.000000   0.000000
    46  Bq   0.000000   0.000000   0.000000   0.000000   0.000000   0.000000
    47  Bq   0.000000   0.000000   0.000000   0.000000   0.000000   0.000000
    48  Bq   0.000000   0.000000   0.000000   0.000000   0.000000   0.000000
              37         38         39         40         41         42
     1  C    0.000000   0.000000   0.000000   0.000000   0.000000   0.000000
     2  C    0.000000   0.000000   0.000000   0.000000   0.000000   0.000000
     3  C    0.000000   0.000000   0.000000   0.000000   0.000000   0.000000
     4  C    0.000000   0.000000   0.000000   0.000000   0.000000   0.000000
     5  H    0.000000   0.000000   0.000000   0.000000   0.000000   0.000000
     6  H    0.000000   0.000000   0.000000   0.000000   0.000000   0.000000
     7  H    0.000000   0.000000   0.000000   0.000000   0.000000   0.000000
     8  C    0.000000   0.000000   0.000000   0.000000   0.000000   0.000000
     9  H    0.000000   0.000000   0.000000   0.000000   0.000000   0.000000
    10  H    0.000000   0.000000   0.000000   0.000000   0.000000   0.000000
    11  H    0.000000   0.000000   0.000000   0.000000   0.000000   0.000000
    12  H    0.000000   0.000000   0.000000   0.000000   0.000000   0.000000
    13  O    0.000000   0.000000   0.000000   0.000000   0.000000   0.000000
    14  O    0.000000   0.000000   0.000000   0.000000   0.000000   0.000000
    15  H    0.000000   0.000000   0.000000   0.000000   0.000000   0.000000
    16  Bq   0.000000   0.000000   0.000000   0.000000   0.000000   0.000000
    17  Bq   0.000000   0.000000   0.000000   0.000000   0.000000   0.000000
    18  Bq   0.000000   0.000000   0.000000   0.000000   0.000000   0.000000
    19  Bq   0.000000   0.000000   0.000000   0.000000   0.000000   0.000000
    20  Bq   0.000000   0.000000   0.000000   0.000000   0.000000   0.000000
    21  Bq   0.000000   0.000000   0.000000   0.000000   0.000000   0.000000
    22  Bq   0.000000   0.000000   0.000000   0.000000   0.000000   0.000000
    23  Bq   0.000000   0.000000   0.000000   0.000000   0.000000   0.000000
    24  Bq   0.000000   0.000000   0.000000   0.000000   0.000000   0.000000
    25  Bq   0.000000   0.000000   0.000000   0.000000   0.000000   0.000000
    26  Bq   0.000000   0.000000   0.000000   0.000000   0.000000   0.000000
    27  Bq   0.000000   0.000000   0.000000   0.000000   0.000000   0.000000
    28  Bq   0.000000   0.000000   0.000000   0.000000   0.000000   0.000000
    29  Bq   0.000000   0.000000   0.000000   0.000000   0.000000   0.000000
    30  Bq   0.000000   0.000000   0.000000   0.000000   0.000000   0.000000
    31  Bq   0.000000   0.000000   0.000000   0.000000   0.000000   0.000000
    32  Bq   0.000000   0.000000   0.000000   0.000000   0.000000   0.000000
    33  Bq   0.000000   0.000000   0.000000   0.000000   0.000000   0.000000
    34  Bq   0.000000   0.000000   0.000000   0.000000   0.000000   0.000000
    35  Bq   0.000000   0.000000   0.000000   0.000000   0.000000   0.000000
    36  Bq   0.000000   0.000000   0.000000   0.000000   0.000000   0.000000
    37  Bq   0.000000   0.000000   0.000000   0.000000   0.000000   0.000000
    38  Bq   0.000000   0.000000   0.000000   0.000000   0.000000   0.000000
    39  Bq   0.000000   0.000000   0.000000   0.000000   0.000000   0.000000
    40  Bq   0.000000   0.000000   0.000000   0.000000   0.000000   0.000000
    41  Bq   0.000000   0.000000   0.000000   0.000000   0.000000   0.000000
    42  Bq   0.000000   0.000000   0.000000   0.000000   0.000000   0.000000
    43  Bq   0.000000   0.000000   0.000000   0.000000   0.000000   0.000000
    44  Bq   0.000000   0.000000   0.000000   0.000000   0.000000   0.000000
    45  Bq   0.000000   0.000000   0.000000   0.000000   0.000000   0.000000
    46  Bq   0.000000   0.000000   0.000000   0.000000   0.000000   0.000000
    47  Bq   0.000000   0.000000   0.000000   0.000000   0.000000   0.000000
    48  Bq   0.000000   0.000000   0.000000   0.000000   0.000000   0.000000
              43         44         45         46         47         48
     1  C    0.000000   0.000000   0.000000   0.000000   0.000000   0.000000
     2  C    0.000000   0.000000   0.000000   0.000000   0.000000   0.000000
     3  C    0.000000   0.000000   0.000000   0.000000   0.000000   0.000000
     4  C    0.000000   0.000000   0.000000   0.000000   0.000000   0.000000
     5  H    0.000000   0.000000   0.000000   0.000000   0.000000   0.000000
     6  H    0.000000   0.000000   0.000000   0.000000   0.000000   0.000000
     7  H    0.000000   0.000000   0.000000   0.000000   0.000000   0.000000
     8  C    0.000000   0.000000   0.000000   0.000000   0.000000   0.000000
     9  H    0.000000   0.000000   0.000000   0.000000   0.000000   0.000000
    10  H    0.000000   0.000000   0.000000   0.000000   0.000000   0.000000
    11  H    0.000000   0.000000   0.000000   0.000000   0.000000   0.000000
    12  H    0.000000   0.000000   0.000000   0.000000   0.000000   0.000000
    13  O    0.000000   0.000000   0.000000   0.000000   0.000000   0.000000
    14  O    0.000000   0.000000   0.000000   0.000000   0.000000   0.000000
    15  H    0.000000   0.000000   0.000000   0.000000   0.000000   0.000000
    16  Bq   0.000000   0.000000   0.000000   0.000000   0.000000   0.000000
    17  Bq   0.000000   0.000000   0.000000   0.000000   0.000000   0.000000
    18  Bq   0.000000   0.000000   0.000000   0.000000   0.000000   0.000000
    19  Bq   0.000000   0.000000   0.000000   0.000000   0.000000   0.000000
    20  Bq   0.000000   0.000000   0.000000   0.000000   0.000000   0.000000
    21  Bq   0.000000   0.000000   0.000000   0.000000   0.000000   0.000000
    22  Bq   0.000000   0.000000   0.000000   0.000000   0.000000   0.000000
    23  Bq   0.000000   0.000000   0.000000   0.000000   0.000000   0.000000
    24  Bq   0.000000   0.000000   0.000000   0.000000   0.000000   0.000000
    25  Bq   0.000000   0.000000   0.000000   0.000000   0.000000   0.000000
    26  Bq   0.000000   0.000000   0.000000   0.000000   0.000000   0.000000
    27  Bq   0.000000   0.000000   0.000000   0.000000   0.000000   0.000000
    28  Bq   0.000000   0.000000   0.000000   0.000000   0.000000   0.000000
    29  Bq   0.000000   0.000000   0.000000   0.000000   0.000000   0.000000
    30  Bq   0.000000   0.000000   0.000000   0.000000   0.000000   0.000000
    31  Bq   0.000000   0.000000   0.000000   0.000000   0.000000   0.000000
    32  Bq   0.000000   0.000000   0.000000   0.000000   0.000000   0.000000
    33  Bq   0.000000   0.000000   0.000000   0.000000   0.000000   0.000000
    34  Bq   0.000000   0.000000   0.000000   0.000000   0.000000   0.000000
    35  Bq   0.000000   0.000000   0.000000   0.000000   0.000000   0.000000
    36  Bq   0.000000   0.000000   0.000000   0.000000   0.000000   0.000000
    37  Bq   0.000000   0.000000   0.000000   0.000000   0.000000   0.000000
    38  Bq   0.000000   0.000000   0.000000   0.000000   0.000000   0.000000
    39  Bq   0.000000   0.000000   0.000000   0.000000   0.000000   0.000000
    40  Bq   0.000000   0.000000   0.000000   0.000000   0.000000   0.000000
    41  Bq   0.000000   0.000000   0.000000   0.000000   0.000000   0.000000
    42  Bq   0.000000   0.000000   0.000000   0.000000   0.000000   0.000000
    43  Bq   0.000000   0.000000   0.000000   0.000000   0.000000   0.000000
    44  Bq   0.000000   0.000000   0.000000   0.000000   0.000000   0.000000
    45  Bq   0.000000   0.000000   0.000000   0.000000   0.000000   0.000000
    46  Bq   0.000000   0.000000   0.000000   0.000000   0.000000   0.000000
    47  Bq   0.000000   0.000000   0.000000   0.000000   0.000000   0.000000
    48  Bq   0.000000   0.000000   0.000000   0.000000   0.000000   0.000000
 Mulliken charges:
               1
     1  C    0.435800
     2  C   -0.306719
     3  C    0.435798
     4  C   -0.517788
     5  H    0.161365
     6  H    0.184415
     7  H    0.184788
     8  C   -0.517786
     9  H    0.184416
    10  H    0.184787
    11  H    0.161364
    12  H    0.127689
    13  O   -0.598432
    14  O   -0.598434
    15  H    0.478737
    16  Bq   0.000000
    17  Bq   0.000000
    18  Bq   0.000000
    19  Bq   0.000000
    20  Bq   0.000000
    21  Bq   0.000000
    22  Bq   0.000000
    23  Bq   0.000000
    24  Bq   0.000000
    25  Bq   0.000000
    26  Bq   0.000000
    27  Bq   0.000000
    28  Bq   0.000000
    29  Bq   0.000000
    30  Bq   0.000000
    31  Bq   0.000000
    32  Bq   0.000000
    33  Bq   0.000000
    34  Bq   0.000000
    35  Bq   0.000000
[...]
                 NL    0.12    0.16    0.20    0.25    0.32    0.40    0.49
  12.  C 1- C 2  L     0.33    0.39    0.46    0.53    0.59    0.63    0.59
                 NL   -0.01   -0.01   -0.01   -0.02   -0.03   -0.05   -0.07
  13.  C 1- C 4  L    -0.23   -0.28   -0.34   -0.41   -0.51   -0.63   -0.79
                 NL    0.07    0.09    0.10    0.12    0.15    0.17    0.18
  14.  C 1- O13  L     0.34    0.41    0.48    0.57    0.64    0.68    0.64
                 NL    0.01    0.01    0.01    0.01    0.01    0.00   -0.01
  15.  C 1- O13  L    -0.13   -0.13   -0.09    0.00    0.20    0.58    1.20
                 NL    0.03    0.04    0.05    0.07    0.08    0.11    0.13
  16.  C 2- C 3  L     0.33    0.39    0.46    0.53    0.60    0.64    0.60
                 NL   -0.01   -0.01   -0.01   -0.02   -0.03   -0.04   -0.07
  17.  C 2- H12  L     0.00    0.00    0.00   -0.02   -0.04   -0.09   -0.17
                 NL    0.11    0.13    0.16    0.20    0.25    0.30    0.34
  18.  C 3- C 8  L    -0.22   -0.27   -0.33   -0.40   -0.49   -0.62   -0.78
                 NL    0.07    0.08    0.10    0.12    0.14    0.17    0.18
  19.  C 3- O14  L     0.36    0.43    0.51    0.60    0.68    0.72    0.68
                 NL    0.01    0.01    0.01    0.01    0.01    0.01    0.00
  20.  C 3- O14  L    -0.16   -0.16   -0.13   -0.04    0.15    0.51    1.13
                 NL    0.03    0.04    0.05    0.06    0.08    0.11    0.13
  21.  C 4- H 5  L     0.06    0.07    0.08    0.09    0.10    0.10    0.10
                 NL    0.02    0.02    0.03    0.03    0.04    0.05    0.07
  22.  C 4- H 6  L    -0.05   -0.05   -0.04   -0.02    0.00    0.01    0.03
                 NL    0.01    0.00    0.00    0.00   -0.01   -0.01   -0.02
  23.  C 4- H 7  L     0.11    0.12    0.13    0.13    0.14    0.15    0.14
                 NL   -0.06   -0.06   -0.07   -0.08   -0.10   -0.10   -0.11
  24.  C 8- H 9  L     0.12    0.13    0.14    0.15    0.16    0.16    0.16
                 NL   -0.04   -0.05   -0.05   -0.06   -0.07   -0.07   -0.08
  25.  C 8- H10  L    -0.08   -0.07   -0.07   -0.05   -0.04   -0.02    0.00
                 NL    0.00   -0.01   -0.01   -0.02   -0.02   -0.03   -0.04
  26.  C 8- H11  L     0.07    0.08    0.09    0.10    0.10    0.11    0.10
                 NL    0.02    0.02    0.02    0.03    0.04    0.05    0.07
  27.  O14- H15  L    -0.05   -0.08   -0.12   -0.20   -0.32   -0.51   -0.81
                 NL    0.04    0.05    0.07    0.10    0.15    0.23    0.37
 ---------------    ------- ------- ------- ------- ------- ------- -------
           Lewis      -0.19   -0.26   -0.37   -0.56   -0.89   -1.49   -2.59
       non-Lewis       0.72    0.93    1.23    1.66    2.24    3.00    3.98
 ---------------    ------- ------- ------- ------- ------- ------- -------
           Total       0.54    0.67    0.86    1.09    1.35    1.51    1.39

        NBO          gh 29   gh 30   gh 31   gh 32   gh 33   gh 34   gh 35
 ---------------    ------- ------- ------- ------- ------- ------- -------
   1.  C 1(cr)   L    -0.25   -0.32   -0.37   -0.39   -0.37   -0.32   -0.25
                 NL    0.03    0.03    0.04    0.04    0.04    0.03    0.03
   2.  C 2(cr)   L    -0.34   -0.42   -0.50   -0.52   -0.50   -0.42   -0.34
                 NL    0.13    0.16    0.18    0.19    0.18    0.16    0.13
   3.  C 3(cr)   L    -0.25   -0.32   -0.37   -0.39   -0.37   -0.32   -0.25
                 NL    0.03    0.03    0.04    0.04    0.04    0.03    0.03
   4.  C 4(cr)   L    -0.10   -0.11   -0.11   -0.11   -0.11   -0.11   -0.10
                 NL    0.01    0.02    0.02    0.02    0.02    0.02    0.01
   5.  C 8(cr)   L    -0.10   -0.11   -0.11   -0.11   -0.11   -0.11   -0.10
                 NL    0.01    0.02    0.02    0.02    0.02    0.02    0.01
   6.  O13(cr)   L    -0.11   -0.14   -0.16   -0.17   -0.16   -0.14   -0.11
                 NL    0.01    0.01    0.01    0.01    0.01    0.01    0.01
   7.  O14(cr)   L    -0.11   -0.14   -0.16   -0.17   -0.16   -0.14   -0.11
                 NL    0.01    0.01    0.01    0.01    0.01    0.01    0.01
   8.  C 2(lp)   L    -0.70   -0.23    0.41    0.72    0.41   -0.23   -0.70
                 NL    1.01    1.35    1.68    1.82    1.68    1.35    1.01
   9.  O13(lp)   L    -0.47   -0.80   -1.13   -1.27   -1.13   -0.81   -0.48
                 NL    0.59    0.70    0.78    0.81    0.78    0.70    0.59
  10.  O13(lp)   L    -4.41   -6.04   -7.49   -8.09   -7.49   -6.04   -4.41
                 NL    1.44    1.96    2.42    2.61    2.41    1.95    1.43
  11.  O14(lp)   L    -0.48   -0.81   -1.13   -1.27   -1.13   -0.80   -0.48
                 NL    0.59    0.69    0.78    0.81    0.78    0.69    0.59
  12.  C 1- C 2  L     0.43    0.12   -0.23   -0.39   -0.22    0.13    0.44
                 NL   -0.10   -0.10   -0.09   -0.08   -0.09   -0.10   -0.10
  13.  C 1- C 4  L    -1.01   -1.26   -1.48   -1.57   -1.47   -1.25   -1.00
                 NL    0.18    0.16    0.13    0.12    0.13    0.16    0.18
  14.  C 1- O13  L     0.46    0.15   -0.20   -0.34   -0.16    0.20    0.53
                 NL   -0.03   -0.04   -0.04   -0.04   -0.04   -0.04   -0.03
  15.  C 1- O13  L     2.09    3.14    4.06    4.42    4.02    3.08    2.02
                 NL    0.17    0.20    0.22    0.22    0.22    0.20    0.17
  16.  C 2- C 3  L     0.44    0.13   -0.22   -0.38   -0.23    0.12    0.43
                 NL   -0.10   -0.10   -0.09   -0.08   -0.09   -0.10   -0.10
  17.  C 2- H12  L    -0.31   -0.49   -0.66   -0.73   -0.66   -0.49   -0.31
                 NL    0.36    0.34    0.31    0.29    0.31    0.34    0.36
  18.  C 3- C 8  L    -1.00   -1.25   -1.47   -1.57   -1.48   -1.26   -1.01
                 NL    0.18    0.16    0.13    0.11    0.13    0.16    0.18
  19.  C 3- O14  L     0.51    0.19   -0.18   -0.35   -0.21    0.13    0.44
                 NL   -0.01   -0.02   -0.01   -0.01   -0.01   -0.02   -0.01
  20.  C 3- O14  L     2.02    3.08    4.02    4.42    4.06    3.14    2.08
                 NL    0.17    0.20    0.22    0.22    0.22    0.20    0.17
  21.  C 4- H 5  L     0.09    0.07    0.05    0.04    0.05    0.07    0.09
                 NL    0.09    0.13    0.15    0.17    0.15    0.13    0.09
  22.  C 4- H 6  L     0.05    0.07    0.08    0.09    0.11    0.13    0.15
                 NL   -0.02   -0.02   -0.02   -0.03   -0.04   -0.05   -0.07
  23.  C 4- H 7  L     0.13    0.12    0.09    0.07    0.06    0.04    0.02
                 NL   -0.10   -0.09   -0.07   -0.06   -0.06   -0.05   -0.05
  24.  C 8- H 9  L     0.15    0.13    0.11    0.09    0.08    0.07    0.05
                 NL   -0.07   -0.05   -0.04   -0.03   -0.02   -0.02   -0.02
  25.  C 8- H10  L     0.02    0.04    0.06    0.07    0.09    0.12    0.13
                 NL   -0.05   -0.05   -0.06   -0.06   -0.07   -0.09   -0.10
  26.  C 8- H11  L     0.09    0.07    0.05    0.04    0.05    0.07    0.09
                 NL    0.10    0.13    0.16    0.17    0.16    0.13    0.10
  27.  O14- H15  L    -1.24   -1.74   -2.18   -2.36   -2.18   -1.74   -1.23
                 NL    0.58    0.87    1.14    1.26    1.14    0.87    0.58
 ---------------    ------- ------- ------- ------- ------- ------- -------
           Lewis      -4.40   -6.85   -9.21  -10.23   -9.21   -6.85   -4.39
       non-Lewis       5.22    6.67    8.01    8.58    8.01    6.67    5.21
 ---------------    ------- ------- ------- ------- ------- ------- -------
           Total       0.82   -0.18   -1.20   -1.65   -1.20   -0.18    0.82

        NBO          gh 36   gh 37   gh 38   gh 39   gh 40   gh 41   gh 42
 ---------------    ------- ------- ------- ------- ------- ------- -------
   1.  C 1(cr)   L    -0.20   -0.15   -0.11   -0.08   -0.06   -0.05   -0.04
                 NL    0.02    0.02    0.01    0.01    0.01    0.01    0.01
   2.  C 2(cr)   L    -0.26   -0.19   -0.14   -0.11   -0.08   -0.06   -0.05
                 NL    0.10    0.07    0.06    0.04    0.03    0.03    0.02
   3.  C 3(cr)   L    -0.20   -0.15   -0.11   -0.08   -0.06   -0.05   -0.04
                 NL    0.02    0.02    0.01    0.01    0.01    0.01    0.01
   4.  C 4(cr)   L    -0.09   -0.08   -0.07   -0.07   -0.06   -0.05   -0.05
                 NL    0.01    0.01    0.01    0.01    0.01    0.01    0.01
   5.  C 8(cr)   L    -0.09   -0.08   -0.07   -0.07   -0.06   -0.05   -0.05
                 NL    0.01    0.01    0.01    0.01    0.01    0.01    0.01
   6.  O13(cr)   L    -0.09   -0.07   -0.05   -0.04   -0.03   -0.02   -0.02
                 NL    0.01    0.00    0.00    0.00    0.00    0.00    0.00
   7.  O14(cr)   L    -0.09   -0.07   -0.05   -0.04   -0.03   -0.02   -0.02
                 NL    0.01    0.00    0.00    0.00    0.00    0.00    0.00
   8.  C 2(lp)   L    -0.87   -0.86   -0.79   -0.70   -0.61   -0.52   -0.44
                 NL    0.73    0.51    0.32    0.17    0.07    0.01   -0.01
   9.  O13(lp)   L    -0.24   -0.10   -0.02    0.02    0.04    0.05    0.05
                 NL    0.49    0.40    0.32    0.25    0.20    0.16    0.12
  10.  O13(lp)   L    -3.04   -2.06   -1.40   -0.97   -0.69   -0.50   -0.37
                 NL    0.99    0.68    0.47    0.33    0.24    0.18    0.14
  11.  O14(lp)   L    -0.24   -0.09   -0.01    0.03    0.04    0.05    0.05
                 NL    0.49    0.40    0.32    0.25    0.20    0.16    0.12
  12.  C 1- C 2  L     0.60    0.64    0.60    0.53    0.46    0.39    0.33
                 NL   -0.07   -0.05   -0.03   -0.02   -0.01   -0.01   -0.01
  13.  C 1- C 4  L    -0.78   -0.62   -0.49   -0.40   -0.33   -0.27   -0.22
                 NL    0.18    0.17    0.14    0.12    0.10    0.08    0.07
  14.  C 1- O13  L     0.70    0.74    0.70    0.61    0.52    0.44    0.37
                 NL   -0.01    0.00    0.01    0.01    0.01    0.01    0.01
  15.  C 1- O13  L     1.13    0.51    0.15   -0.04   -0.13   -0.16   -0.17
                 NL    0.13    0.11    0.08    0.06    0.05    0.04    0.03
  16.  C 2- C 3  L     0.59    0.63    0.59    0.53    0.46    0.39    0.33
                 NL   -0.07   -0.04   -0.03   -0.02   -0.01   -0.01   -0.01
  17.  C 2- H12  L    -0.17   -0.09   -0.04   -0.02    0.00    0.00    0.00
                 NL    0.34    0.30    0.25    0.20    0.16    0.13    0.11
  18.  C 3- C 8  L    -0.80   -0.63   -0.51   -0.41   -0.34   -0.28   -0.23
                 NL    0.18    0.17    0.15    0.12    0.10    0.09    0.07
  19.  C 3- O14  L     0.61    0.66    0.62    0.55    0.47    0.39    0.33
                 NL    0.00    0.01    0.01    0.01    0.01    0.01    0.01
  20.  C 3- O14  L     1.19    0.58    0.20    0.00   -0.09   -0.13   -0.13
                 NL    0.13    0.11    0.08    0.07    0.05    0.04    0.03
  21.  C 4- H 5  L     0.10    0.11    0.10    0.10    0.09    0.08    0.07
                 NL    0.07    0.05    0.04    0.03    0.02    0.02    0.02
  22.  C 4- H 6  L     0.16    0.16    0.16    0.15    0.14    0.13    0.12
                 NL   -0.08   -0.07   -0.07   -0.06   -0.05   -0.05   -0.04
  23.  C 4- H 7  L     0.00   -0.02   -0.04   -0.05   -0.07   -0.07   -0.08
                 NL   -0.04   -0.03   -0.02   -0.02   -0.01   -0.01    0.00
  24.  C 8- H 9  L     0.03    0.01   -0.01   -0.02   -0.04   -0.05   -0.05
                 NL   -0.02   -0.01   -0.01    0.00    0.00    0.00    0.01
  25.  C 8- H10  L     0.14    0.15    0.14    0.13    0.13    0.12    0.11
                 NL   -0.11   -0.10   -0.10   -0.08   -0.07   -0.06   -0.06
  26.  C 8- H11  L     0.10    0.10    0.10    0.09    0.08    0.07    0.07
                 NL    0.07    0.05    0.04    0.03    0.03    0.02    0.02
  27.  O14- H15  L    -0.81   -0.51   -0.32   -0.20   -0.12   -0.08   -0.05
                 NL    0.37    0.23    0.15    0.10    0.07    0.05    0.04
 ---------------    ------- ------- ------- ------- ------- ------- -------
           Lewis      -2.59   -1.49   -0.89   -0.56   -0.37   -0.26   -0.18
       non-Lewis       3.98    3.00    2.23    1.65    1.23    0.93    0.72
 ---------------    ------- ------- ------- ------- ------- ------- -------
           Total       1.39    1.51    1.35    1.09    0.86    0.67    0.54

        NBO          gh 43   gh 44   gh 45   gh 46   gh 47   gh 48
 ---------------    ------- ------- ------- ------- ------- -------
   1.  C 1(cr)   L    -0.03   -0.03   -0.02   -0.02   -0.01   -0.01
                 NL    0.00    0.00    0.00    0.00    0.00    0.00
   2.  C 2(cr)   L    -0.04   -0.03   -0.03   -0.02   -0.02   -0.01
                 NL    0.02    0.01    0.01    0.01    0.01    0.01
   3.  C 3(cr)   L    -0.03   -0.02   -0.02   -0.02   -0.01   -0.01
                 NL    0.00    0.00    0.00    0.00    0.00    0.00
   4.  C 4(cr)   L    -0.04   -0.03   -0.03   -0.03   -0.02   -0.02
                 NL    0.01    0.01    0.00    0.00    0.00    0.00
   5.  C 8(cr)   L    -0.04   -0.03   -0.03   -0.03   -0.02   -0.02
                 NL    0.01    0.01    0.00    0.00    0.00    0.00
   6.  O13(cr)   L    -0.02   -0.01   -0.01   -0.01   -0.01   -0.01
                 NL    0.00    0.00    0.00    0.00    0.00    0.00
   7.  O14(cr)   L    -0.02   -0.01   -0.01   -0.01   -0.01   -0.01
                 NL    0.00    0.00    0.00    0.00    0.00    0.00
   8.  C 2(lp)   L    -0.37   -0.31   -0.26   -0.22   -0.18   -0.15
                 NL   -0.02   -0.02   -0.02   -0.02   -0.02   -0.02
   9.  O13(lp)   L     0.04    0.04    0.03    0.03    0.03    0.02
                 NL    0.10    0.08    0.07    0.06    0.05    0.04
  10.  O13(lp)   L    -0.29   -0.22   -0.18   -0.14   -0.11   -0.09
                 NL    0.11    0.09    0.07    0.06    0.05    0.04
  11.  O14(lp)   L     0.04    0.04    0.03    0.03    0.03    0.02
                 NL    0.10    0.08    0.07    0.06    0.05    0.04
  12.  C 1- C 2  L     0.28    0.23    0.20    0.17    0.14    0.12
                 NL    0.00    0.00    0.00    0.00    0.00    0.00
  13.  C 1- C 4  L    -0.18   -0.15   -0.13   -0.11   -0.09   -0.08
                 NL    0.06    0.05    0.04    0.04    0.03    0.03
  14.  C 1- O13  L     0.31    0.26    0.22    0.18    0.15    0.13
                 NL    0.01    0.01    0.01    0.00    0.00    0.00
  15.  C 1- O13  L    -0.16   -0.14   -0.13   -0.11   -0.10   -0.09
                 NL    0.02    0.02    0.01    0.01    0.01    0.01
  16.  C 2- C 3  L     0.28    0.23    0.20    0.17    0.14    0.12
                 NL    0.00    0.00    0.00    0.00    0.00    0.00
  17.  C 2- H12  L     0.01    0.00    0.00    0.00    0.00    0.00
                 NL    0.09    0.07    0.06    0.05    0.04    0.04
  18.  C 3- C 8  L    -0.19   -0.16   -0.13   -0.11   -0.10   -0.08
                 NL    0.06    0.05    0.04    0.04    0.03    0.03
  19.  C 3- O14  L     0.27    0.23    0.19    0.16    0.13    0.11
                 NL    0.01    0.01    0.01    0.00    0.00    0.00
  20.  C 3- O14  L    -0.13   -0.12   -0.10   -0.09   -0.08   -0.07
                 NL    0.02    0.02    0.01    0.01    0.01    0.01
  21.  C 4- H 5  L     0.07    0.06    0.05    0.05    0.04    0.04
                 NL    0.02    0.01    0.01    0.01    0.01    0.01
  22.  C 4- H 6  L     0.11    0.10    0.10    0.09    0.08    0.08
                 NL   -0.04   -0.03   -0.03   -0.02   -0.02   -0.02
  23.  C 4- H 7  L    -0.08   -0.08   -0.08   -0.08   -0.08   -0.08
                 NL    0.00    0.00    0.00    0.00    0.00    0.00
  24.  C 8- H 9  L    -0.06   -0.06   -0.06   -0.06   -0.06   -0.06
                 NL    0.01    0.01    0.01    0.01    0.01    0.01
  25.  C 8- H10  L     0.10    0.10    0.09    0.08    0.08    0.07
                 NL   -0.05   -0.04   -0.04   -0.03   -0.03   -0.02
  26.  C 8- H11  L     0.06    0.05    0.04    0.04    0.03    0.03
                 NL    0.02    0.01    0.01    0.01    0.01    0.01
  27.  O14- H15  L    -0.03   -0.02   -0.02   -0.01   -0.01   -0.01
                 NL    0.03    0.03    0.02    0.02    0.02    0.01
 ---------------    ------- ------- ------- ------- ------- -------
           Lewis      -0.14   -0.10   -0.08   -0.07   -0.06   -0.05
       non-Lewis       0.57    0.46    0.38    0.32    0.26    0.22
 ---------------    ------- ------- ------- ------- ------- -------
           Total       0.44    0.36    0.30    0.25    0.21    0.18

 Maximum scratch memory used by NBO was 904444 words
 Maximum scratch memory used by G09NBO was 4343273 words

 Read Unf file /home/alphaomega/rpaton/Gau-2328.EUF:
 Label Gaussian matrix elements                                         IVers= 1 NLab= 2 Version=ES64L-G09RevD.01
 Title Diketone_enolization_TS_mod3                                    
 NAtoms=    48 NBasis=   121 NBsUse=   121 ICharg=     0 Multip=     1 NE=    54 Len12L=8 Len4L=8
 Label GAUSSIAN SCALARS                                                 NI= 1 NR= 1 NTot=       1 LenBuf=    2000 N=    1000       1       1       1       1
 Label NPA CHARGES                                                      NI= 0 NR= 1 NTot=      48 LenBuf=    4000 N=      48       0       0       0       0
 Recovered energy= -345.795406683     dipole=      0.000000000000      0.000000000000      0.000000000000
 1\1\GINC-ALPHAOMEGA\SP\RB3LYP\6-31G(d)\C5H8O2\RPATON\18-Apr-2014\0\\# 
 Pop=nbo6read b3lyp/6-31G(d) nmr=giao\\Diketone_enolization_TS_mod3\\0,
 1\C,0,1.200366,-0.057999,-0.001896\C,0,0.000001,-0.785583,-0.000014\C,
 0,-1.200363,-0.058004,0.001883\C,0,2.546296,-0.716087,0.000297\H,0,2.4
 6754,-1.803322,-0.049049\H,0,3.127542,-0.351634,-0.851156\H,0,3.083446
 ,-0.431823,0.909931\C,0,-2.546295,-0.716087,-0.000282\H,0,-3.127438,-0
 .351816,0.851322\H,0,-3.08356,-0.431629,-0.909786\H,0,-2.467528,-1.803
 331,0.048833\H,0,0.000002,-1.867131,-0.000026\O,0,1.17589,1.223884,-0.
 00142\O,0,-1.175893,1.223882,0.001422\H,0,-0.000008,1.461121,-0.000001
 \Bq,0,-0.0055813212,0.5012410863,-4.000000441\Bq,0,-0.0052325616,0.501
 2395705,-3.7500006843\Bq,0,-0.0048838019,0.5012380547,-3.5000009275\Bq
 ,0,-0.0045350423,0.5012365389,-3.2500011708\Bq,0,-0.0041862826,0.50123
 50231,-3.0000014141\Bq,0,-0.0038375229,0.5012335073,-2.7500016574\Bq,0
 ,-0.0034887633,0.5012319915,-2.5000019006\Bq,0,-0.0031400036,0.5012304
 757,-2.2500021439\Bq,0,-0.002791244,0.5012289598,-2.0000023872\Bq,0,-0
 .0024424843,0.501227444,-1.7500026304\Bq,0,-0.0020937246,0.5012259282,
 -1.5000028737\Bq,0,-0.001744965,0.5012244124,-1.250003117\Bq,0,-0.0013
 962053,0.5012228966,-1.0000033603\Bq,0,-0.0010474456,0.5012213808,-0.7
 500036035\Bq,0,-0.000698686,0.501219865,-0.5000038468\Bq,0,-0.00034992
 63,0.5012183491,-0.2500040901\Bq,0,-0.0000011667,0.5012168333,-0.00000
 43333\Bq,0,0.000347593,0.5012153175,0.2499954234\Bq,0,0.0006963527,0.5
 012138017,0.4999951801\Bq,0,0.0010451123,0.5012122859,0.7499949369\Bq,
 0,0.001393872,0.5012107701,0.9999946936\Bq,0,0.0017426316,0.5012092543
 ,1.2499944503\Bq,0,0.0020913913,0.5012077385,1.499994207\Bq,0,0.002440
 151,0.5012062226,1.7499939638\Bq,0,0.0027889106,0.5012047068,1.9999937
 205\Bq,0,0.0031376703,0.501203191,2.2499934772\Bq,0,0.0034864299,0.501
 2016752,2.4999932339\Bq,0,0.0038351896,0.5012001594,2.7499929907\Bq,0,
 0.0041839493,0.5011986436,2.9999927474\Bq,0,0.0045327089,0.5011971278,
 3.2499925041\Bq,0,0.0048814686,0.5011956119,3.4999922609\Bq,0,0.005230
 2282,0.5011940961,3.7499920176\Bq,0,0.0055789879,0.5011925803,3.999991
 7743\\Version=ES64L-G09RevD.01\HF=-345.7954067\RMSD=4.440e-09\Dipole=0
 .0000039,-1.1477118,0.0000175\Quadrupole=2.8213027,-2.2229863,-0.59831
 64,-0.0000277,0.0417675,-0.0000301\PG=C01 [X(C5H8O2)]\\@


     SCHOPENHAUER'S LAW OF ENTROPY
 IF YOU PUT A SPOONFUL OF WINE IN A BARREL FULL
 OF SEWAGE, YOU GET SEWAGE.
 IF YOU PUT A SPOONFUL OF SEWAGE IN A BARREL FULL
 OF WINE, YOU GET SEWAGE.
 Job cpu time:       0 days  0 hours  7 minutes 35.1 seconds.
 File lengths (MBytes):  RWF=     37 Int=      0 D2E=      0 Chk=      2 Scr=      1
 Normal termination of Gaussian 09 at Fri Apr 18 01:13:09 2014.
